# vtk DataFile Version 2.0
octrace vtk file
ASCII
DATASET UNSTRUCTURED_GRID
POINTS 643 float
-2 -2 0
-0.870584 -0.864375 0
-1.08988 -1.26391 0
-1.6 -2 0
-0.701086 -0.823384 0
-0.851835 -0.69849 0
-1.74689 -1.71884 0
-1.26887 -1.31658 0
-1 -1 0
-1.25532 -1.13617 0
-1 -0.8 0
-2 -1.6 0
-0.8 -1 0
-0.6 -1 0
-1.38354 -1.59544 0
-1.14413 -1.44743 0
-0.878193 -1.23272 0
-0.973964 -1.40731 0
-1.2 -2 0
-0.488877 -0.838144 0
-0.551723 -0.690018 0
-0.693677 -0.603007 0
-0.843267 -0.502193 0
-1 -0.6 0
-1 -0.4 0
-1.75093 -1.39875 0
-1.47544 -1.27046 0
-1.21138 -0.912474 0
-1.40337 -1.02381 0
-1.19428 -0.71444 0
-2 -1.2 0
-0.29592 -0.835673 0
-0.4 -1 0
-0.2 -1 0
-0.674465 -1.21759 0
-0.48036 -1.15711 0
-1.004 -1.65595 0
-0.749653 -1.46161 0
-0.8 -2 0
-0.387496 -0.673426 0
-0.499258 -0.504544 0
-0.678127 -0.404316 0
-0.839971 -0.303177 0
-1 -0.2 0
-1.18207 -0.497285 0
-1.14944 -0.315809 0
-1.65756 -0.997873 0
-1.41531 -0.800429 0
-1.34782 -0.593517 0
-2 -0.8 0
-0.197076 -0.667884 0
-0.10009 -0.834336 0
-8.88178e-16 -1 0
-0.283669 -1.17584 0
-0.0881857 -1.12991 0
-0.448367 -1.39806 0
-0.633157 -1.71433 0
-0.4 -2 0
0.090906 -1.18031 0
-0.290331 -0.498512 0
-0.373737 -0.360552 0
-0.519712 -0.301978 0
-0.678734 -0.20477 0
-0.838738 -0.103624 0
-1 8.88178e-16 0
-1.20761 -0.133402 0
-1.38149 -0.334672 0
-1.64552 -0.587472 0
-1.18881 0.0800706 0
-2 -0.4 0
-0.104381 -0.497396 0
-0.00423657 -0.667962 0
0.0980785 -0.834898 0
0.2 -1 0
-0.0851021 -1.36993 0
-0.232164 -1.68999 0
0.187159 -1.35158 0
-1.77636e-15 -2 0
0.331072 -1.23149 0
-0.208699 -0.311804 0
-0.36507 -0.19973 0
-0.520165 -0.105936 0
-0.676791 -0.00785292 0
-0.837732 0.0941392 0
-1 0.2 0
-1.41855 -0.0306462 0
-1.71942 -0.184575 0
-1.19079 0.293486 0
-1.36355 0.18984 0
-2 1.77636e-15 0
-0.0126844 -0.335771 0
0.086978 -0.502455 0
0.193105 -0.670669 0
0.299692 -0.836418 0
0.4 -1 0
0.174165 -1.65322 0
0.371203 -1.44453 0
0.4 -2 0
0.525995 -1.16063 0
0.56406 -1.3657 0
-0.197685 -0.108037 0
-0.0761436 -0.190267 0
0.0594228 -0.183261 0
-0.357143 -0.0113066 0
-0.202619 0.0466038 0
-0.510452 0.0871135 0
-0.67535 0.186655 0
-0.837424 0.292153 0
-1 0.4 0
-1.17674 0.494286 0
-1.65045 0.198861 0
-1.41564 0.396721 0
-2 0.4 0
0.184006 -0.317121 0
0.184983 -0.159015 0
0.282065 -0.508352 0
0.396055 -0.673931 0
0.496441 -0.844358 0
0.6 -1 0
0.580887 -1.66844 0
0.8 -2 0
0.734842 -1.20599 0
0.764014 -1.43957 0
-0.0153434 -0.00812871 0
0.130884 -0.0682733 0
0.236152 -0.0652076 0
-0.319341 0.185822 0
-0.118122 0.181982 0
0.0440108 0.177343 0
-0.513925 0.2753 0
-0.675772 0.379079 0
-0.364795 0.363518 0
-0.838054 0.483263 0
-0.687488 0.544247 0
-1.34919 0.621777 0
-1 0.6 0
-1.15085 0.646782 0
-1.66237 0.610053 0
-1.44001 0.80395 0
-2 0.8 0
0.359735 -0.356379 0
0.332059 -0.180319 0
0.498974 -0.496191 0
0.69552 -0.851853 0
0.595587 -0.697191 0
0.8 -1 0
0.862769 -0.870238 0
0.92602 -1.138 0
1.2 -2 0
0.99053 -1.65609 0
0.963802 -1.33804 0
1.6 -2 0
0.18092 0.077061 0
0.352416 0.00396241 0
-0.199018 0.349023 0
-0.0174415 0.338398 0
0.180876 0.295539 0
-0.502055 0.495304 0
-0.294968 0.510189 0
-0.819605 0.697927 0
-0.60201 0.684201 0
-1.19657 0.825967 0
-1 0.8 0
-0.862995 0.870568 0
-1.3559 0.960018 0
-1.20749 1.01288 0
-1.62714 0.997923 0
-2 1.2 0
-2 1.6 0
0.506393 -0.283908 0
0.50699 -0.0924818 0
0.684798 -0.551655 0
0.671572 -0.385376 0
0.818323 -0.699334 0
1 -1 0
1 -0.8 0
1.11567 -1.17605 0
1.40639 -1.70173 0
1.25158 -1.41099 0
1.73443 -1.73906 0
2 -2 0
0.349651 0.185334 0
0.511335 0.096949 0
0.36202 0.350652 0
-0.105575 0.506206 0
0.084287 0.494607 0
0.2712 0.494783 0
-0.403005 0.671715 0
-0.203604 0.670469 0
-0.695371 0.854913 0
-0.505977 0.839601 0
-1 1 0
-0.8 1 0
-1.11195 1.11821 0
-1.32046 1.18672 0
-1.61124 1.42471 0
-1.7182 1.75316 0
-2 2 0
0.669791 -0.193691 0
0.671912 0.00164409 0
0.835199 -0.489513 0
0.835069 -0.296198 0
1 -0.6 0
1.1408 -0.85992 0
1.19752 -1.00206 0
1.17039 -0.695552 0
1.36537 -1.12628 0
1.65578 -1.39805 0
2 -1.6 0
0.512895 0.286363 0
0.674274 0.196755 0
0.49148 0.495987 0
-0.00837006 0.667243 0
0.185032 0.665471 0
0.378935 0.669154 0
-0.304646 0.834291 0
-0.105062 0.833169 0
-0.6 1 0
-0.4 1 0
-0.940036 1.13236 0
-0.756353 1.12574 0
-1.09177 1.25909 0
-1.18096 1.49028 0
-1.37432 1.74674 0
-1.6 2 0
0.834734 -0.0983393 0
0.836456 0.0998518 0
1 -0.4 0
1 -0.2 0
1.17342 -0.48134 0
1.355 -0.846244 0
1.32417 -0.606081 0
1.66679 -1.00042 0
2 -1.2 0
0.675631 0.396374 0
0.837842 0.299053 0
0.687536 0.598617 0
0.545701 0.685105 0
0.093691 0.833272 0
0.29045 0.833769 0
0.48504 0.834717 0
-0.2 1 0
8.88178e-16 1 0
-0.577054 1.19571 0
-0.334943 1.17716 0
-0.832714 1.38177 0
-1.00141 1.7218 0
-1.2 2 0
1 -8.88178e-16 0
1 0.2 0
1.19529 -0.263424 0
1.12463 -0.0768057 0
1.40163 -0.367325 0
1.62462 -0.631976 0
2 -0.8 0
0.84172 0.498328 0
1 0.4 0
0.849312 0.695923 0
0.691336 0.817931 0
0.2 1 0
0.4 1 0
0.6 1 0
-0.111919 1.18191 0
0.0916536 1.17433 0
-0.496896 1.41257 0
-0.22619 1.35083 0
-0.620462 1.71201 0
-0.8 2 0
1.16533 0.115785 0
1.12611 0.309404 0
1.37919 -0.0528847 0
1.67502 -0.253432 0
2 -0.4 0
1 0.6 0
1.17265 0.492053 0
1 0.8 0
0.868554 0.862002 0
0.8 1 0
0.305251 1.17539 0
0.500942 1.16016 0
0.67169 1.13078 0
-0.00203417 1.38911 0
0.199799 1.31518 0
-0.206592 1.63509 0
-0.4 2 0
1.36206 0.314994 0
1.3369 0.590554 0
1.67719 0.166196 0
2 -1.77636e-15 0
1.21084 0.737364 0
1.1505 0.927683 0
1 1 0
0.840723 1.20588 0
0.404492 1.38703 0
0.629794 1.3305 0
0.203626 1.62403 0
1.77636e-15 2 0
1.43018 0.777202 0
1.64684 0.588497 0
2 0.4 0
1.34944 0.96904 0
1.18971 1.12454 0
1.02921 1.21714 0
0.973585 1.37675 0
0.813627 1.43832 0
0.629277 1.64198 0
0.4 2 0
1.65229 0.994658 0
2 0.8 0
1.41815 1.24523 0
1.18896 1.38584 0
0.995402 1.63659 0
0.8 2 0
1.72145 1.38263 0
2 1.2 0
1.40452 1.61868 0
1.2 2 0
1.74415 1.71916 0
2 1.6 0
1.6 2 0
2 2 0
-2 -2 1
-0.870584 -0.864375 1
-1.08988 -1.26391 1
-1.6 -2 1
-0.701086 -0.823384 1
-0.851835 -0.69849 1
-1.74689 -1.71884 1
-1.26887 -1.31658 1
-1 -1 1
-1.25532 -1.13617 1
-1 -0.8 1
-2 -1.6 1
-0.8 -1 1
-0.6 -1 1
-1.38354 -1.59544 1
-1.14413 -1.44743 1
-0.878193 -1.23272 1
-0.973964 -1.40731 1
-1.2 -2 1
-0.488877 -0.838144 1
-0.551723 -0.690018 1
-0.693677 -0.603007 1
-0.843267 -0.502193 1
-1 -0.6 1
-1 -0.4 1
-1.75093 -1.39875 1
-1.47544 -1.27046 1
-1.21138 -0.912474 1
-1.40337 -1.02381 1
-1.19428 -0.71444 1
-2 -1.2 1
-0.29592 -0.835673 1
-0.4 -1 1
-0.2 -1 1
-0.674465 -1.21759 1
-0.48036 -1.15711 1
-1.004 -1.65595 1
-0.749653 -1.46161 1
-0.8 -2 1
-0.387496 -0.673426 1
-0.499258 -0.504544 1
-0.678127 -0.404316 1
-0.839971 -0.303177 1
-1 -0.2 1
-1.18207 -0.497285 1
-1.14944 -0.315809 1
-1.65756 -0.997873 1
-1.41531 -0.800429 1
-1.34782 -0.593517 1
-2 -0.8 1
-0.197076 -0.667884 1
-0.10009 -0.834336 1
-8.88178e-16 -1 1
-0.283669 -1.17584 1
-0.0881857 -1.12991 1
-0.448367 -1.39806 1
-0.633157 -1.71433 1
-0.4 -2 1
0.090906 -1.18031 1
-0.290331 -0.498512 1
-0.373737 -0.360552 1
-0.519712 -0.301978 1
-0.678734 -0.20477 1
-0.838738 -0.103624 1
-1 8.88178e-16 1
-1.20761 -0.133402 1
-1.38149 -0.334672 1
-1.64552 -0.587472 1
-1.18881 0.0800706 1
-2 -0.4 1
-0.104381 -0.497396 1
-0.00423657 -0.667962 1
0.0980785 -0.834898 1
0.2 -1 1
-0.0851021 -1.36993 1
-0.232164 -1.68999 1
0.187159 -1.35158 1
-1.77636e-15 -2 1
0.331072 -1.23149 1
-0.208699 -0.311804 1
-0.36507 -0.19973 1
-0.520165 -0.105936 1
-0.676791 -0.00785292 1
-0.837732 0.0941392 1
-1 0.2 1
-1.41855 -0.0306462 1
-1.71942 -0.184575 1
-1.19079 0.293486 1
-1.36355 0.18984 1
-2 1.77636e-15 1
-0.0126844 -0.335771 1
0.086978 -0.502455 1
0.193105 -0.670669 1
0.299692 -0.836418 1
0.4 -1 1
0.174165 -1.65322 1
0.371203 -1.44453 1
0.4 -2 1
0.525995 -1.16063 1
0.56406 -1.3657 1
-0.197685 -0.108037 1
-0.0761436 -0.190267 1
0.0594228 -0.183261 1
-0.357143 -0.0113066 1
-0.202619 0.0466038 1
-0.510452 0.0871135 1
-0.67535 0.186655 1
-0.837424 0.292153 1
-1 0.4 1
-1.17674 0.494286 1
-1.65045 0.198861 1
-1.41564 0.396721 1
-2 0.4 1
0.184006 -0.317121 1
0.184983 -0.159015 1
0.282065 -0.508352 1
0.396055 -0.673931 1
0.496441 -0.844358 1
0.6 -1 1
0.580887 -1.66844 1
0.8 -2 1
0.734842 -1.20599 1
0.764014 -1.43957 1
-0.0153434 -0.00812871 1
0.130884 -0.0682733 1
0.236152 -0.0652076 1
-0.319341 0.185822 1
-0.118122 0.181982 1
0.0440108 0.177343 1
-0.513925 0.2753 1
-0.675772 0.379079 1
-0.364795 0.363518 1
-0.838054 0.483263 1
-0.687488 0.544247 1
-1.34919 0.621777 1
-1 0.6 1
-1.15085 0.646782 1
-1.66237 0.610053 1
-1.44001 0.80395 1
-2 0.8 1
0.359735 -0.356379 1
0.332059 -0.180319 1
0.498974 -0.496191 1
0.69552 -0.851853 1
0.595587 -0.697191 1
0.8 -1 1
0.862769 -0.870238 1
0.92602 -1.138 1
1.2 -2 1
0.99053 -1.65609 1
0.963802 -1.33804 1
1.6 -2 1
0.18092 0.077061 1
0.352416 0.00396241 1
-0.199018 0.349023 1
-0.0174415 0.338398 1
0.180876 0.295539 1
-0.502055 0.495304 1
-0.294968 0.510189 1
-0.819605 0.697927 1
-0.60201 0.684201 1
-1.19657 0.825967 1
-1 0.8 1
-0.862995 0.870568 1
-1.3559 0.960018 1
-1.20749 1.01288 1
-1.62714 0.997923 1
-2 1.2 1
-2 1.6 1
0.506393 -0.283908 1
0.50699 -0.0924818 1
0.684798 -0.551655 1
0.671572 -0.385376 1
0.818323 -0.699334 1
1 -1 1
1 -0.8 1
1.11567 -1.17605 1
1.40639 -1.70173 1
1.25158 -1.41099 1
1.73443 -1.73906 1
2 -2 1
0.349651 0.185334 1
0.511335 0.096949 1
0.36202 0.350652 1
-0.105575 0.506206 1
0.084287 0.494607 1
0.2712 0.494783 1
-0.403005 0.671715 1
-0.203604 0.670469 1
-0.695371 0.854913 1
-0.505977 0.839601 1
-1 1 1
-0.8 1 1
-1.11195 1.11821 1
-1.32046 1.18672 1
-1.61124 1.42471 1
-1.7182 1.75316 1
-2 2 1
0.669791 -0.193691 1
0.671912 0.00164409 1
0.835199 -0.489513 1
0.835069 -0.296198 1
1 -0.6 1
1.1408 -0.85992 1
1.19752 -1.00206 1
1.17039 -0.695552 1
1.36537 -1.12628 1
1.65578 -1.39805 1
2 -1.6 1
0.512895 0.286363 1
0.674274 0.196755 1
0.49148 0.495987 1
-0.00837006 0.667243 1
0.185032 0.665471 1
0.378935 0.669154 1
-0.304646 0.834291 1
-0.105062 0.833169 1
-0.6 1 1
-0.4 1 1
-0.940036 1.13236 1
-0.756353 1.12574 1
-1.09177 1.25909 1
-1.18096 1.49028 1
-1.37432 1.74674 1
-1.6 2 1
0.834734 -0.0983393 1
0.836456 0.0998518 1
1 -0.4 1
1 -0.2 1
1.17342 -0.48134 1
1.355 -0.846244 1
1.32417 -0.606081 1
[...]
POINT_DATA 3210
SCALARS scalars float 1 
LOOKUP_TABLE default
0.00103247
0.00093138
0.00688533
0.00121474
0
0.0348961
8.24285e-05
0.00148738
0.00771927
0.000134667
0.00234915
0.000943907
0.039951
0.00775444
0.00325877
0.00144486
1.45493e-05
5.3163e-05
0.000169777
0.00082056
0.000318974
0.00581227
0.0036998
0.00709327
0.00501151
0.000388763
0.000918884
1.10193e-05
4.02898e-05
4.20146e-05
1.06399e-05
0.046121
0.0195877
0.017309
0.0117599
0.00989203
0.000785345
0.00106958
0.00015365
9.05521e-06
3.80613e-05
4.60867e-05
0.000114044
6.47552e-05
0.00714404
0.00754961
1.02597e-05
0.00091703
0.000882616
0
6.39244e-05
1.61266e-05
2.53619e-05
0.00533355
0.0170044
0.00788205
0.00300547
0.00119941
0.00514079
0.00896969
0.00249735
0.000130693
8.91103e-05
2.0414e-05
4.86063e-05
0.00819815
0.00402565
0.0022248
0.00461221
0.000693964
0.00766157
0.000158701
4.12232e-05
4.32217e-05
0.000977688
0.000813801
0.00457723
0.00190146
0.00660795
0.0402545
0.0465273
0.0623153
0.084524
0.0568042
0.00014563
7.8752e-05
0.000537002
0.00379757
1.41334e-05
9.29022e-06
0.121145
0.0888257
0.0804411
0.0345418
0.0434873
5.44162e-05
0.00039629
0.000105135
0.00748699
0.00128279
0.0856879
0.192312
0.0242929
0.103927
0.0411726
0.0897408
0.0871277
0.0861857
0.0403234
0.00782559
0.000219485
0.00062411
3.85458e-05
0.0494404
0.093568
0.0815075
0.0646192
0.0327423
0.0399886
0.00225159
0.000281475
9.67943e-05
0.00183916
0.000150833
0.00510039
0.0426792
0.0311833
0.0192321
0.0221317
0.0400969
0.0108394
0.0329956
0.0370432
0.0470567
0.010838
0.0338731
0.00905044
0.00326001
0.00249391
5.57511e-05
7.40103e-06
1.19855e-05
0.0181109
0.00628191
0.0224368
0.0202177
0.0270849
0.0158192
0.000764292
0
0.00344966
2.1412e-05
2.70339e-05
2.41599e-05
0.0146305
0.0227276
0.0362571
0.0152532
0.0113516
0.0114149
0.0143168
0.0121617
0.0138325
0.00940102
0.00894772
0.0128193
0.000884103
0.000549481
0.000959374
0.00286812
1.03779e-05
6.72541e-06
8.48288e-06
0.0166018
0.0100177
0.0158411
0.0103516
0.00178788
0.00736093
0.000732759
0.00096863
0.00220484
0.000122215
3.66299e-06
1.0655e-07
6.32418e-06
1.74544e-06
0.00694113
0
0.00427942
0.0108735
0.00815193
0.00856364
0.00707279
0.00648903
0.00298526
0
0.00150962
0.00311349
0.000512126
0.00220621
0.001527
1.26622e-05
7.9329e-06
2.33346e-06
3.63074e-06
0.00117393
0.00278189
0.00143703
0.0188821
0.0194737
0.00926395
0.00181722
0.00030672
0.000727585
0.000216453
6.38076e-06
3.26422e-06
4.39918e-06
0.000285265
0.00530315
0.00316515
0.00234668
0
0.00137651
0.011046
0.0164167
0.00523284
0.00575168
0.00307921
0.000927217
0.000998316
0.000175409
0.000209868
9.8377e-05
0
3.50365e-06
3.01357e-06
1.78942e-06
0.000232242
0.00676976
0.00464111
0.00369562
0.00226534
0.000568594
2.27703e-05
4.80921e-06
6.50856e-06
1.35806e-05
4.88688e-06
0.00655924
0.0164509
0.0068789
0.00280575
0.00151547
0.0108534
0.00600228
0.0145777
0.0177823
0.0228042
0.0130843
0.000937538
0.00693468
3.83636e-05
0.000116484
1.6301e-05
4.30299e-05
0.000210157
0.0231923
0.0288237
0.00542362
0.00120706
0.000337912
2.81416e-05
1.55262e-05
8.51537e-06
0.00468699
0.0204966
0.00553528
0.0176743
0.0267785
0.00906651
0.0159424
0.0028217
0.00165643
0.00117276
0.000920401
0.000149973
5.91355e-06
1.95048e-05
5.37762e-06
2.5613e-06
0.000964689
0.000762956
0.000471882
8.04512e-06
4.8298e-06
1.0246e-05
0.00065493
0.00139945
0.00280614
0.00896074
0.017333
0.00973587
0.00420519
0.00234764
0
0.000656244
0
1.46574e-05
1.40958e-05
1.78131e-05
7.74498e-06
1.49636e-05
2.79749e-05
1.97696e-05
0
2.88013e-05
0.000574419
0.000153071
0.000393632
0.000425956
0.000692473
0.000111676
7.96855e-06
2.55749e-05
1.64443e-05
0
3.38329e-06
1.19793e-05
7.90931e-06
9.28645e-06
2.09385e-06
1.66247e-05
9.73501e-05
5.60361e-05
4.54914e-05
1.14414e-05
7.77539e-06
3.81038e-06
0
8.12855e-06
4.82214e-06
7.41801e-06
8.85971e-06
1.16791e-05
3.55108e-06
4.05035e-06
4.3199e-06
2.79595e-06
3.00024e-06
1.51323e-06
5.27511e-06
3.88454e-06
3.00985e-06
1.47528e-06
1.83716e-06
8.3342e-07
0.00400942
0.000316947
0.000349884
0.0115587
0.00517747
0.0103259
0.00358435
1.66433e-05
0.000865136
0.000263445
3.86892e-05
0.00428792
0
0.0201621
0.00459673
0.00553911
0.000606069
5.00582e-06
1.54289e-05
0.000368407
4.82206e-05
0.000577903
0.000478877
0.00703736
0.0109762
0.00258223
0.00173206
0.000377593
3.74238e-06
2.3659e-05
1.90382e-05
0.00186385
0.00173977
0.024012
0.00709718
0.00466961
0.00490569
0.000512269
0.000263816
0.000180624
4.13096e-06
1.25565e-05
1.30291e-05
6.67332e-05
0.00285303
0.00884483
0.00628299
0.00153135
0.000639614
0.000177695
2.53501e-05
0
4.37038e-06
0.000361672
0.0176106
0.00895101
0.0047295
0.00646901
0.00116604
0.00244261
0.000480091
0.000238472
1.62649e-05
2.4095e-05
1.43106e-05
1.52722e-05
0.00185926
0.0144999
0.0103766
0.00606336
0.00202623
0.00030975
2.10431e-05
3.61097e-06
1.01427e-05
1.6674e-05
0.000767717
0.0193595
0.0111776
0
0.00344174
0.00457637
0.000714553
0.000444961
0.000432632
6.47585e-06
1.84363e-05
0.000525247
4.29192e-05
0.00599111
0.0149701
0.00717307
0.0068335
0.00438598
0.00117393
6.33989e-05
1.70354e-05
7.67983e-06
0.00014976
8.109e-05
0.00131114
0.00307389
0.00135829
0.00742072
0.0143682
0.00427685
0.0023627
0.00288522
0.00148609
0.000418905
5.21548e-06
3.92825e-06
5.24568e-06
6.76868e-06
0.00109556
0.0132407
0
0.00488935
0.00326845
0.00480157
0.00163456
0
7.76604e-06
4.50887e-07
1.28301e-05
0.00330015
0
0.00257149
0.00359099
0.0028215
0.00157374
0.00123243
0.00817079
0.00374435
0.00560833
0.00410281
0.00330094
0.000378022
0.00119304
7.77096e-05
1.14303e-06
5.31936e-06
0.000208561
0.00107818
0.0155356
0
0.00756549
0.00232283
0
0.00226096
0.000933288
4.51113e-05
2.2644e-06
8.44611e-06
0.000990192
0.00591354
0.00370395
0.00303935
0.00234386
0
0.000900888
0.00758793
0.0032923
0.0051502
0.00348036
0.00274635
0.0020537
4.58695e-05
0.00045784
0.000998744
0.000305506
3.21664e-06
0
0.00072339
0.0059488
0.00580371
0
0.007742
0.00176983
0.00213293
0.000888084
0.00165666
0.000560754
7.29855e-06
2.2923e-06
3.69135e-06
0
0.000347654
0.00894887
0.0192252
0.00760731
0.0035733
0.0046412
0.00143299
0.00242149
0.00158404
0.0010093
0.00274765
0
0.000266868
0.00193273
0.00549974
0.000157758
1.14524e-05
1.14628e-05
5.22032e-06
5.11041e-06
0.00237467
0.00247778
0.00112302
0.000985909
0.023136
0.0072476
0.00575395
0.000295307
0.00289838
3.15556e-05
1.05249e-05
3.7198e-06
2.37262e-06
0.00355325
0.0157517
0.00509253
0
0.0114006
0.0143505
0.0145508
0.00639514
0.0122918
0.00279356
0.00190124
0.00228185
0.00182397
0.000259908
0.000107116
5.00128e-06
2.66309e-06
2.80455e-06
5.82044e-07
0.00228532
0.00757013
0.00610564
0.00269984
0.00297595
0.00131713
0.0002037
6.47364e-06
6.4416e-06
1.44956e-05
5.77629e-06
4.47886e-06
0.00144869
0.011244
0.0108672
0.0148742
0.00362957
0.0105724
0.0111168
0.00284717
0.00130379
0
0.000653672
0.000122428
0.000126803
9.74955e-06
3.96829e-06
1.39863e-06
2.05908e-06
0.000554813
0
0.00109038
0.000384206
0.000441986
4.27278e-05
1.92329e-06
0
2.32751e-06
0.00149904
0.00238769
0
0.0010945
0.000976471
0.000971597
0.000671784
0.0004755
0.00193441
0.000385625
0.000163035
5.60529e-05
3.0475e-05
0
2.78228e-06
0.000109001
0.000365308
0.000602003
3.21247e-05
2.44053e-05
1.16382e-05
1.71945e-06
0.000539775
0.00127218
0.000400629
0.000618635
0.00281258
0.00221778
0.000681833
0.000715644
0.000584583
0.000173764
7.7079e-06
9.10539e-06
7.97117e-06
4.00978e-06
7.97981e-06
9.84448e-06
2.80888e-05
1.31713e-05
8.49772e-06
0.000244395
0.000266851
0.000102361
0.000503378
0.000386214
0.000444326
3.17093e-05
3.06669e-05
2.4164e-05
1.43402e-05
9.59074e-06
5.89421e-06
0
7.44305e-06
4.3816e-06
0
6.28832e-05
5.54673e-05
0.000139042
1.94139e-05
1.32246e-05
7.36599e-06
4.15324e-06
2.15978e-06
6.04048e-06
5.06581e-06
1.00973e-05
1.06714e-05
1.23133e-05
8.11726e-06
7.2121e-06
3.10233e-06
2.83336e-06
0
3.41919e-06
1.53402e-06
3.76897e-06
2.35425e-06
1.79815e-06
1.83312e-06
6.77402e-07
0.00111258
7.88875e-05
0.000415765
0.00175709
0.00129593
0.0067827
0.000867601
6.46478e-05
0.000623089
4.14067e-05
0.000183362
0.00268536
0.00484874
0
0.000414053
0.00383047
3.33212e-06
6.26095e-06
0.000205092
0.000272057
0
0.000187353
0.000169372
0.00351281
0.001696
0.00114805
0.00144256
6.80161e-05
1.5062e-05
2.34101e-05
1.73615e-05
0.0056445
0.00744526
0.00668613
0.00488989
0.00312982
0.00278557
0.000469891
0.000505504
2.62158e-05
1.28699e-05
1.99178e-05
1.56012e-05
1.76868e-05
0.00101079
0.00159855
0.00344153
0.000462831
0.0014726
0.000222112
3.30955e-05
7.85465e-06
1.18726e-05
0.000401755
0.00940347
0.00931087
0.0112497
0.0105143
0.00903431
0.00313437
0.0016514
0.000168507
3.67088e-05
6.10801e-06
1.17566e-05
0.000258955
0.00287511
0.0130709
0.00746755
0.0090672
0.00380233
5.98793e-05
1.84036e-05
8.40841e-06
2.39007e-05
1.37864e-06
0.000320599
0
0.00854562
0.00777511
0.0105255
0.00712862
0.0111828
0.00442777
6.2627e-05
1.28803e-05
0.000100148
0.000755395
4.15239e-05
4.32836e-07
0.0025436
0.00139794
0.000718604
0.000380813
0.00405579
9.67364e-06
2.97032e-05
0
0.00117057
0.000108677
0.00523527
0.00342825
0.000782189
0.00195575
0.00051552
0.00062005
0.0051401
0.00407322
0.00236323
0.000556769
1.53455e-05
3.34045e-05
4.54881e-05
0.00129352
0.00225317
0.00426394
0.00294285
0.00220554
0
0.00063076
0.000182227
0
2.02928e-05
0.000207018
2.48384e-05
0.00369337
0.00695056
0.00379366
0.00435808
0.00281834
0.00370362
0.00220475
0.00124505
0.000781559
0
0.00196965
0.000727621
0.00281891
0.0013467
2.24019e-05
2.28227e-05
2.01894e-05
0.00214697
0.00363169
0.00304809
0.00278998
0.00145775
0.00136667
7.50234e-05
0.000236191
0.00117362
2.75641e-06
4.04991e-05
2.80451e-05
0.00376778
0.00315782
0.00467585
0.00174015
0.00102676
0.00548935
0
0.00264602
0.00735943
0.0156744
0.00578004
0.00612245
0.00498075
0.00072954
0.0029567
0.00638087
6.88204e-05
1.61476e-05
1.08757e-05
0.00557338
0.0107243
0.00919067
0.0108848
0.00738664
0
0
0.00163846
0.00263977
6.88175e-05
2.96291e-06
1.93247e-06
0
7.59222e-07
0.00435324
0.00595676
0.00311204
0.00633151
0.00207433
0.00132193
0.00653615
0.00375624
0.00274835
0.000698862
0.000808714
0.00141414
0.000374921
0.000658361
0.00135587
2.05121e-05
9.06607e-06
1.19456e-06
2.25729e-06
6.65456e-05
0.0032398
0.00149347
0.000857223
0.00240961
0.00362603
0.00113031
0.000292246
0.000187245
0.000266793
5.42924e-06
1.5646e-06
2.3279e-06
5.8883e-07
0.00153418
0.000761727
0.00511474
0.00246321
0.000761073
0.0043162
0.0057958
0.00382467
0.00148164
0.00289425
0.00147197
0.00154004
0.000169613
0
2.16674e-05
3.23682e-06
2.82166e-06
1.65883e-06
0
0.000950092
0.00166794
0
0.000230537
0.000571706
0.000118529
1.44112e-05
1.67926e-06
2.41426e-05
1.93299e-06
7.48092e-07
0.0014536
0.00345895
0
0.00161565
0.00255192
0.00190108
0.00291844
0.000710942
0.00208411
0
0.000708056
0.000235795
0.000419838
4.34971e-05
3.83818e-06
0
6.02367e-06
2.29467e-06
0.00228664
0.00188143
0.00120457
0.000169077
0.000135725
1.63252e-05
4.89274e-06
7.79058e-06
7.8935e-05
0.00381472
0.00209478
0.00295406
0.00205609
0.00207875
0.000900487
0.00108165
0.000585693
0.00131626
0.000759122
0.000370764
3.2966e-05
3.4311e-05
6.52318e-06
4.10252e-06
4.85852e-07
0.000289027
0.000242771
0
2.6788e-05
1.56516e-05
6.36751e-06
0.00153422
0.000891278
0.000631679
0.000912572
0.000642957
0.00108412
0.000672064
0.000673989
0.000601887
4.02373e-05
3.8076e-05
1.99704e-05
1.33253e-05
3.54118e-06
7.3776e-07
2.16275e-05
6.55039e-06
1.72827e-05
7.00704e-06
0.000554727
0.000136297
0.000230792
0.000438373
0.000488533
6.51832e-05
1.95176e-05
3.42102e-05
2.28454e-05
2.05366e-05
0
9.35544e-06
1.09987e-05
6.6563e-06
2.32423e-06
1.4273e-05
5.17365e-05
0
0.000116429
1.86723e-05
1.4711e-05
1.25075e-05
5.99914e-06
2.91346e-06
3.46189e-06
1.34097e-06
5.57503e-06
6.57078e-06
1.26697e-05
9.92439e-06
9.50075e-06
5.5544e-06
4.73813e-06
4.38136e-06
4.63748e-06
3.76174e-06
2.24809e-06
1.25416e-06
0
6.83492e-07
0.000291119
0.00217229
0.000102516
0.00221637
0.00137541
0.00224271
0.00162793
1.9374e-06
7.70251e-05
8.50496e-05
5.24504e-06
0.00106858
0.00627538
0.00587603
0.00564715
0.00411411
0.00101736
3.75991e-06
7.0113e-06
0.000422558
7.45318e-05
0.000325027
0.00025371
0.000923476
0.00173446
0.000418932
0.000246506
7.35517e-05
5.97959e-06
1.76854e-05
1.39078e-05
0.000581914
0.00645402
0.00390381
0.0017598
0.00204122
0.000598521
0.000239476
1.525e-06
4.10084e-05
0
1.30259e-05
1.44978e-05
3.12244e-05
1.15597e-05
0.00423851
0
0.00112466
0.000537508
0.000229619
2.294e-05
1.06662e-05
0
8.39957e-06
0.000658489
0.000867408
0.000716606
0.00609164
0.00250305
0.00328752
0.00142617
0.000312405
2.16617e-05
1.20928e-05
3.93313e-06
5.66414e-06
7.25184e-05
0.000395578
0.000635948
0.00277654
0
0.000423783
2.49679e-05
0
1.44771e-05
6.3337e-06
0.000176506
0
0.0053879
0.00390513
0.00399097
0
0.00244994
0.000850469
7.27261e-06
5.10284e-06
6.85333e-06
0.000115832
2.19618e-05
0.000882704
0.00313186
0.00507297
0.00447905
0.0055857
0.00144756
0.000253067
6.52062e-06
1.28785e-05
6.48073e-05
0.000117753
0.00221195
8.15957e-05
0.00684464
0
0.00376127
0.00341222
0.00486367
0.00493539
0.00357023
0.00186735
7.54679e-05
5.27802e-06
6.31149e-06
7.81842e-06
0.0010896
0.00374475
0.00368479
0.00668904
0.0043387
0.00434562
3.99111e-07
3.14968e-06
7.99375e-06
0.000147189
2.3563e-05
0.00216178
0.00357155
0
0.00334065
0.00518457
0
0.00462352
0.0058436
0.00418136
0.00235834
0.00110233
0.00148957
0.000163208
0.000815338
0.000125627
4.31812e-06
4.76892e-06
1.48406e-07
7.24132e-08
0.00671613
0.0029059
0.00379699
0.00126085
0
0.000460296
0.00112879
9.1759e-05
3.02609e-06
9.15347e-06
3.25668e-05
0.000888675
0.005848
0.0068493
0.00261039
0.00100939
0.000942445
0.00259234
0.00287847
0.00193269
0.00248425
0.00289583
0.00443196
1.69294e-05
0.000386164
0.00162749
0.000629034
1.58252e-05
5.92744e-06
3.79059e-06
0.00315032
0.00208361
0.000883674
0.00337754
0.00220556
0.002586
0.000595613
0.000790343
0.000660646
4.30984e-06
5.42498e-07
1.21865e-06
0
0.000147086
0.00333118
0.00365708
0.0041078
0.00130116
0.0033459
0.00306346
0.000940419
0.000827049
0
0.000519067
0.00137793
0.000395903
0.000254607
0
4.05728e-05
2.24251e-06
1.8141e-06
5.79874e-07
1.88086e-07
0.000336927
0.000627139
0.000538249
0.00323757
0.00171222
0.000387347
0.00169717
0.00016327
1.05608e-05
5.72997e-05
3.63205e-06
1.13771e-06
1.96013e-06
0.000199876
0.00294637
0.00320116
0.00108091
0.00150268
0.00214232
0.00160961
0.000750303
0
0.00380381
0.00272574
0.00268291
0.0017842
0.000337288
0.000103809
9.53056e-06
3.39847e-06
1.92054e-06
1.40516e-06
0.000131413
0.0048633
0.0034756
0.00306915
0.00146525
0.00153753
0.000115627
9.12582e-06
5.44738e-06
2.61374e-05
8.62594e-06
2.45549e-06
0
0.00299977
0.00219942
0.00252644
0.000699489
0.00159641
0.00182666
0.000753347
0
0
0.00111839
0.000360342
0.000236464
1.40235e-05
5.39195e-06
1.80854e-06
2.66486e-06
0.00125629
0.00312966
0.00254647
0.000580252
0.000552546
0.000107996
1.07474e-05
7.23784e-06
1.06007e-06
0.00114663
0.000759908
0.00330406
0.00371216
0.0033538
0.00200392
0.00114732
0.000811609
0.0011362
0.000154121
0.00037492
0.000161794
3.97076e-05
2.91297e-05
8.66243e-06
3.10529e-06
0.000469899
0.000301969
6.59242e-05
1.89206e-05
7.31648e-06
0
0.00110796
0.00274435
0.000685924
0.00200562
0.00231635
0.000831826
0.000297348
0.000170766
0.000406566
0.000127129
4.49353e-05
4.2697e-05
1.60056e-05
1.91082e-05
2.17728e-06
3.82283e-05
2.63941e-05
1.39314e-05
7.71716e-06
0.000131231
0
8.96159e-05
0.000196852
0.00175419
0.000622086
0
2.99469e-05
2.36538e-05
0
5.99902e-06
1.74773e-06
9.60601e-06
6.49558e-06
1.15345e-05
1.6411e-05
5.30628e-05
8.81269e-05
0.00018304
6.47365e-05
1.9771e-05
4.64165e-07
1.68724e-05
6.92645e-06
8.77683e-06
3.27276e-06
6.58263e-06
5.65327e-06
3.63516e-06
3.02791e-06
1.51348e-06
6.30638e-06
6.20992e-06
3.35365e-06
0
0
2.12704e-06
1.45601e-06
7.94838e-07
2.9884e-07
2.92841e-07
1.27428e-07
7.67845e-06
0
9.64874e-05
0.000340645
0.00150051
0.000667578
8.16449e-06
5.0037e-07
4.16972e-05
6.19309e-06
0.00137062
0.002722
0.00305526
0
0.00102099
9.82111e-07
1.31602e-06
8.20394e-06
0.000308046
1.19018e-05
0.000447868
0.000155292
0.00235794
0.00178376
0.000349555
0.000297513
1.54133e-05
2.49414e-06
2.05521e-06
1.91305e-06
0.00129661
1.32273e-05
0.00191869
0.0041661
0.00367027
0.00221652
0.000492621
0.000821705
0
4.52213e-06
8.96744e-06
8.0401e-06
0
0.000537509
0.000690006
0
6.92423e-05
0.000515749
0.000157223
1.9089e-05
3.69363e-07
6.55414e-06
0.000199723
0.00227107
0.00282774
0.00166117
0.000916848
0.000502499
0
0.000391724
0
3.3592e-05
7.45933e-06
1.02281e-05
0.000297401
0.000603007
0.00133754
0.0018273
0.00135883
0.000722942
1.56811e-05
6.98646e-06
1.06518e-06
1.97772e-06
0.000101606
0.000439734
0.00234103
0.00174271
0.00261396
0.00170776
0.00159093
0
0.000135667
6.606e-05
0
5.0169e-06
0.000228998
2.87527e-05
1.70066e-06
0.00200766
0.00194344
0
0.00124226
0.000687381
4.3076e-06
5.69366e-06
2.73848e-06
0.000311075
3.02241e-05
0.00274094
0.00394036
0.00256259
0.00155949
0
0.00258065
0.00132611
0.0011338
0.00108023
0.000576387
7.51885e-06
1.75994e-05
2.07872e-05
0.000211312
0.00194395
0.00229565
0.000622931
0.000578274
0.00336312
0.00163003
0.00084018
4.71987e-06
1.9371e-05
0.00015978
1.20417e-05
0.00241048
0.0020275
0.00391794
0.00386448
0.00339656
0.00356032
0.00340888
0.00329912
0.00113451
0.00109058
0.00143682
0.00111585
0.000190985
0.000125522
1.9346e-05
5.70491e-06
7.54358e-06
0.00045562
0.00229189
0.00251004
0.000766357
0.000352811
0.00158042
8.04056e-06
0.00059837
0.00039544
1.23712e-06
4.55084e-06
5.70243e-06
0.00102269
0.00195219
0
0.000825884
0
0.00192895
0.00224559
0.00133107
0.00105461
0.00028601
0.000302747
0.00077765
0.000401741
1.5505e-05
3.69513e-05
0.000276229
2.6378e-05
1.68677e-06
6.57623e-06
0.000585048
0.000653538
0.00413213
0.00357004
3.14668e-06
0.00102397
0.00163161
0.000340894
0.00136547
2.6733e-05
3.72055e-06
3.14938e-06
2.58285e-06
1.47236e-06
0.00126024
0.0016765
0.000770322
0.00160454
0.00465983
0.00437429
0.00375413
0.00386193
0.00441624
0.000691965
0.000946553
0.00155247
9.589e-05
0.000749591
0.000306995
4.64911e-05
7.38077e-06
2.92933e-06
2.2295e-06
8.24967e-07
0.000979166
0.0016678
0.00088512
0.00492973
0.000159499
0.0020376
0
0.000115511
0.000316023
3.35159e-05
4.65411e-07
1.57017e-06
7.81881e-07
0
0.00536679
0.00314194
0.00334586
0.00241784
0.00253833
0.0016399
0.00107958
0.000834296
0.00194906
0.00237297
0.00283072
0.00140345
0.00068288
0.000431971
2.0511e-05
8.52662e-06
2.60746e-06
1.13792e-06
0.00113697
0.000820424
0.00538834
0.00463501
0.00394402
0.00187338
0.00013751
1.13129e-05
2.815e-05
6.97133e-06
1.09455e-05
0.00120524
0.00354259
0
0.00374246
0.00346265
0.00469557
0.00200455
0.00121056
0.00251188
0.00207679
1.51055e-05
0.000538565
0.000602594
0.000120822
1.67165e-05
6.04923e-06
2.35632e-06
1.15202e-06
0.000671214
0.00241095
0.00135816
0.000740272
0.000773997
4.84605e-05
1.23079e-05
1.50661e-05
3.64305e-06
0.00319417
0.00202642
0.00216801
0.00226635
0
0.00153808
0.000626367
0.00283237
0.00239504
0
0.000370721
1.7237e-05
0
4.23137e-06
1.67587e-06
0.000275896
0.000345034
0.000920209
8.73478e-05
5.18083e-05
1.35611e-05
5.59201e-06
0
0.00155158
0.000877716
0.00312966
0.0021523
0.0019541
0.000340276
0.000502285
0.000374476
3.62338e-05
2.13187e-05
7.7645e-06
1.50364e-05
8.56882e-06
3.04163e-05
2.14932e-07
2.46763e-05
1.85623e-05
1.25386e-05
0.000223333
3.16019e-05
6.90061e-05
0.000400472
0
0.000454334
4.88851e-05
5.16239e-05
4.2909e-05
3.14336e-05
2.15887e-05
1.72633e-05
1.14005e-05
8.16713e-06
3.29915e-06
1.22076e-05
4.8427e-05
1.92427e-05
3.41138e-05
3.89708e-06
3.09757e-06
0
9.5168e-06
1.00781e-05
9.19813e-06
6.58894e-06
7.19443e-06
4.72614e-06
5.58533e-06
2.73158e-06
1.29262e-06
1.24364e-06
1.06946e-06
6.9592e-07
7.67608e-06
7.91594e-06
5.47376e-06
2.698e-06
2.67604e-06
0
9.20097e-05
0.00108596
0
0.000718865
0.000709538
0.000651477
0
1.16506e-06
2.17382e-05
2.70297e-05
1.3276e-06
0.00046883
0.00196126
0.00125745
0.00170348
0.000666555
0.000489774
9.48008e-07
2.47572e-06
6.1266e-05
1.86809e-05
1.08816e-05
0.00012668
0.000265292
0.00093052
0.000787042
0
0.00028984
0
3.88845e-06
5.06862e-06
4.62657e-06
0.00171916
0.00218771
0.00161583
0.00109155
0.000390822
8.39527e-05
0.000221802
0.000209456
1.45915e-06
4.22366e-06
7.8741e-06