# vtk DataFile Version 2.0
octrace vtk file
ASCII
DATASET UNSTRUCTURED_GRID
POINTS 643 float
-2 -2 0
-0.870584 -0.864375 0
-1.08988 -1.26391 0
-1.6 -2 0
-0.701086 -0.823384 0
-0.851835 -0.69849 0
-1.74689 -1.71884 0
-1.26887 -1.31658 0
-1 -1 0
-1.25532 -1.13617 0
-1 -0.8 0
-2 -1.6 0
-0.8 -1 0
-0.6 -1 0
-1.38354 -1.59544 0
-1.14413 -1.44743 0
-0.878193 -1.23272 0
-0.973964 -1.40731 0
-1.2 -2 0
-0.488877 -0.838144 0
-0.551723 -0.690018 0
-0.693677 -0.603007 0
-0.843267 -0.502193 0
-1 -0.6 0
-1 -0.4 0
-1.75093 -1.39875 0
-1.47544 -1.27046 0
-1.21138 -0.912474 0
-1.40337 -1.02381 0
-1.19428 -0.71444 0
-2 -1.2 0
-0.29592 -0.835673 0
-0.4 -1 0
-0.2 -1 0
-0.674465 -1.21759 0
-0.48036 -1.15711 0
-1.004 -1.65595 0
-0.749653 -1.46161 0
-0.8 -2 0
-0.387496 -0.673426 0
-0.499258 -0.504544 0
-0.678127 -0.404316 0
-0.839971 -0.303177 0
-1 -0.2 0
-1.18207 -0.497285 0
-1.14944 -0.315809 0
-1.65756 -0.997873 0
-1.41531 -0.800429 0
-1.34782 -0.593517 0
-2 -0.8 0
-0.197076 -0.667884 0
-0.10009 -0.834336 0
-8.88178e-16 -1 0
-0.283669 -1.17584 0
-0.0881857 -1.12991 0
-0.448367 -1.39806 0
-0.633157 -1.71433 0
-0.4 -2 0
0.090906 -1.18031 0
-0.290331 -0.498512 0
-0.373737 -0.360552 0
-0.519712 -0.301978 0
-0.678734 -0.20477 0
-0.838738 -0.103624 0
-1 8.88178e-16 0
-1.20761 -0.133402 0
-1.38149 -0.334672 0
-1.64552 -0.587472 0
-1.18881 0.0800706 0
-2 -0.4 0
-0.104381 -0.497396 0
-0.00423657 -0.667962 0
0.0980785 -0.834898 0
0.2 -1 0
-0.0851021 -1.36993 0
-0.232164 -1.68999 0
0.187159 -1.35158 0
-1.77636e-15 -2 0
0.331072 -1.23149 0
-0.208699 -0.311804 0
-0.36507 -0.19973 0
-0.520165 -0.105936 0
-0.676791 -0.00785292 0
-0.837732 0.0941392 0
-1 0.2 0
-1.41855 -0.0306462 0
-1.71942 -0.184575 0
-1.19079 0.293486 0
-1.36355 0.18984 0
-2 1.77636e-15 0
-0.0126844 -0.335771 0
0.086978 -0.502455 0
0.193105 -0.670669 0
0.299692 -0.836418 0
0.4 -1 0
0.174165 -1.65322 0
0.371203 -1.44453 0
0.4 -2 0
0.525995 -1.16063 0
0.56406 -1.3657 0
-0.197685 -0.108037 0
-0.0761436 -0.190267 0
0.0594228 -0.183261 0
-0.357143 -0.0113066 0
-0.202619 0.0466038 0
-0.510452 0.0871135 0
-0.67535 0.186655 0
-0.837424 0.292153 0
-1 0.4 0
-1.17674 0.494286 0
-1.65045 0.198861 0
-1.41564 0.396721 0
-2 0.4 0
0.184006 -0.317121 0
0.184983 -0.159015 0
0.282065 -0.508352 0
0.396055 -0.673931 0
0.496441 -0.844358 0
0.6 -1 0
0.580887 -1.66844 0
0.8 -2 0
0.734842 -1.20599 0
0.764014 -1.43957 0
-0.0153434 -0.00812871 0
0.130884 -0.0682733 0
0.236152 -0.0652076 0
-0.319341 0.185822 0
-0.118122 0.181982 0
0.0440108 0.177343 0
-0.513925 0.2753 0
-0.675772 0.379079 0
-0.364795 0.363518 0
-0.838054 0.483263 0
-0.687488 0.544247 0
-1.34919 0.621777 0
-1 0.6 0
-1.15085 0.646782 0
-1.66237 0.610053 0
-1.44001 0.80395 0
-2 0.8 0
0.359735 -0.356379 0
0.332059 -0.180319 0
0.498974 -0.496191 0
0.69552 -0.851853 0
0.595587 -0.697191 0
0.8 -1 0
0.862769 -0.870238 0
0.92602 -1.138 0
1.2 -2 0
0.99053 -1.65609 0
0.963802 -1.33804 0
1.6 -2 0
0.18092 0.077061 0
0.352416 0.00396241 0
-0.199018 0.349023 0
-0.0174415 0.338398 0
0.180876 0.295539 0
-0.502055 0.495304 0
-0.294968 0.510189 0
-0.819605 0.697927 0
-0.60201 0.684201 0
-1.19657 0.825967 0
-1 0.8 0
-0.862995 0.870568 0
-1.3559 0.960018 0
-1.20749 1.01288 0
-1.62714 0.997923 0
-2 1.2 0
-2 1.6 0
0.506393 -0.283908 0
0.50699 -0.0924818 0
0.684798 -0.551655 0
0.671572 -0.385376 0
0.818323 -0.699334 0
1 -1 0
1 -0.8 0
1.11567 -1.17605 0
1.40639 -1.70173 0
1.25158 -1.41099 0
1.73443 -1.73906 0
2 -2 0
0.349651 0.185334 0
0.511335 0.096949 0
0.36202 0.350652 0
-0.105575 0.506206 0
0.084287 0.494607 0
0.2712 0.494783 0
-0.403005 0.671715 0
-0.203604 0.670469 0
-0.695371 0.854913 0
-0.505977 0.839601 0
-1 1 0
-0.8 1 0
-1.11195 1.11821 0
-1.32046 1.18672 0
-1.61124 1.42471 0
-1.7182 1.75316 0
-2 2 0
0.669791 -0.193691 0
0.671912 0.00164409 0
0.835199 -0.489513 0
0.835069 -0.296198 0
1 -0.6 0
1.1408 -0.85992 0
1.19752 -1.00206 0
1.17039 -0.695552 0
1.36537 -1.12628 0
1.65578 -1.39805 0
2 -1.6 0
0.512895 0.286363 0
0.674274 0.196755 0
0.49148 0.495987 0
-0.00837006 0.667243 0
0.185032 0.665471 0
0.378935 0.669154 0
-0.304646 0.834291 0
-0.105062 0.833169 0
-0.6 1 0
-0.4 1 0
-0.940036 1.13236 0
-0.756353 1.12574 0
-1.09177 1.25909 0
-1.18096 1.49028 0
-1.37432 1.74674 0
-1.6 2 0
0.834734 -0.0983393 0
0.836456 0.0998518 0
1 -0.4 0
1 -0.2 0
1.17342 -0.48134 0
1.355 -0.846244 0
1.32417 -0.606081 0
1.66679 -1.00042 0
2 -1.2 0
0.675631 0.396374 0
0.837842 0.299053 0
0.687536 0.598617 0
0.545701 0.685105 0
0.093691 0.833272 0
0.29045 0.833769 0
0.48504 0.834717 0
-0.2 1 0
8.88178e-16 1 0
-0.577054 1.19571 0
-0.334943 1.17716 0
-0.832714 1.38177 0
-1.00141 1.7218 0
-1.2 2 0
1 -8.88178e-16 0
1 0.2 0
1.19529 -0.263424 0
1.12463 -0.0768057 0
1.40163 -0.367325 0
1.62462 -0.631976 0
2 -0.8 0
0.84172 0.498328 0
1 0.4 0
0.849312 0.695923 0
0.691336 0.817931 0
0.2 1 0
0.4 1 0
0.6 1 0
-0.111919 1.18191 0
0.0916536 1.17433 0
-0.496896 1.41257 0
-0.22619 1.35083 0
-0.620462 1.71201 0
-0.8 2 0
1.16533 0.115785 0
1.12611 0.309404 0
1.37919 -0.0528847 0
1.67502 -0.253432 0
2 -0.4 0
1 0.6 0
1.17265 0.492053 0
1 0.8 0
0.868554 0.862002 0
0.8 1 0
0.305251 1.17539 0
0.500942 1.16016 0
0.67169 1.13078 0
-0.00203417 1.38911 0
0.199799 1.31518 0
-0.206592 1.63509 0
-0.4 2 0
1.36206 0.314994 0
1.3369 0.590554 0
1.67719 0.166196 0
2 -1.77636e-15 0
1.21084 0.737364 0
1.1505 0.927683 0
1 1 0
0.840723 1.20588 0
0.404492 1.38703 0
0.629794 1.3305 0
0.203626 1.62403 0
1.77636e-15 2 0
1.43018 0.777202 0
1.64684 0.588497 0
2 0.4 0
1.34944 0.96904 0
1.18971 1.12454 0
1.02921 1.21714 0
0.973585 1.37675 0
0.813627 1.43832 0
0.629277 1.64198 0
0.4 2 0
1.65229 0.994658 0
2 0.8 0
1.41815 1.24523 0
1.18896 1.38584 0
0.995402 1.63659 0
0.8 2 0
1.72145 1.38263 0
2 1.2 0
1.40452 1.61868 0
1.2 2 0
1.74415 1.71916 0
2 1.6 0
1.6 2 0
2 2 0
-2 -2 1
-0.870584 -0.864375 1
-1.08988 -1.26391 1
-1.6 -2 1
-0.701086 -0.823384 1
-0.851835 -0.69849 1
-1.74689 -1.71884 1
-1.26887 -1.31658 1
-1 -1 1
-1.25532 -1.13617 1
-1 -0.8 1
-2 -1.6 1
-0.8 -1 1
-0.6 -1 1
-1.38354 -1.59544 1
-1.14413 -1.44743 1
-0.878193 -1.23272 1
-0.973964 -1.40731 1
-1.2 -2 1
-0.488877 -0.838144 1
-0.551723 -0.690018 1
-0.693677 -0.603007 1
-0.843267 -0.502193 1
-1 -0.6 1
-1 -0.4 1
-1.75093 -1.39875 1
-1.47544 -1.27046 1
-1.21138 -0.912474 1
-1.40337 -1.02381 1
-1.19428 -0.71444 1
-2 -1.2 1
-0.29592 -0.835673 1
-0.4 -1 1
-0.2 -1 1
-0.674465 -1.21759 1
-0.48036 -1.15711 1
-1.004 -1.65595 1
-0.749653 -1.46161 1
-0.8 -2 1
-0.387496 -0.673426 1
-0.499258 -0.504544 1
-0.678127 -0.404316 1
-0.839971 -0.303177 1
-1 -0.2 1
-1.18207 -0.497285 1
-1.14944 -0.315809 1
-1.65756 -0.997873 1
-1.41531 -0.800429 1
-1.34782 -0.593517 1
-2 -0.8 1
-0.197076 -0.667884 1
-0.10009 -0.834336 1
-8.88178e-16 -1 1
-0.283669 -1.17584 1
-0.0881857 -1.12991 1
-0.448367 -1.39806 1
-0.633157 -1.71433 1
-0.4 -2 1
0.090906 -1.18031 1
-0.290331 -0.498512 1
-0.373737 -0.360552 1
-0.519712 -0.301978 1
-0.678734 -0.20477 1
-0.838738 -0.103624 1
-1 8.88178e-16 1
-1.20761 -0.133402 1
-1.38149 -0.334672 1
-1.64552 -0.587472 1
-1.18881 0.0800706 1
-2 -0.4 1
-0.104381 -0.497396 1
-0.00423657 -0.667962 1
0.0980785 -0.834898 1
0.2 -1 1
-0.0851021 -1.36993 1
-0.232164 -1.68999 1
0.187159 -1.35158 1
-1.77636e-15 -2 1
0.331072 -1.23149 1
-0.208699 -0.311804 1
-0.36507 -0.19973 1
-0.520165 -0.105936 1
-0.676791 -0.00785292 1
-0.837732 0.0941392 1
-1 0.2 1
-1.41855 -0.0306462 1
-1.71942 -0.184575 1
-1.19079 0.293486 1
-1.36355 0.18984 1
-2 1.77636e-15 1
-0.0126844 -0.335771 1
0.086978 -0.502455 1
0.193105 -0.670669 1
0.299692 -0.836418 1
0.4 -1 1
0.174165 -1.65322 1
0.371203 -1.44453 1
0.4 -2 1
0.525995 -1.16063 1
0.56406 -1.3657 1
-0.197685 -0.108037 1
-0.0761436 -0.190267 1
0.0594228 -0.183261 1
-0.357143 -0.0113066 1
-0.202619 0.0466038 1
-0.510452 0.0871135 1
-0.67535 0.186655 1
-0.837424 0.292153 1
-1 0.4 1
-1.17674 0.494286 1
-1.65045 0.198861 1
-1.41564 0.396721 1
-2 0.4 1
0.184006 -0.317121 1
0.184983 -0.159015 1
0.282065 -0.508352 1
0.396055 -0.673931 1
0.496441 -0.844358 1
0.6 -1 1
0.580887 -1.66844 1
0.8 -2 1
0.734842 -1.20599 1
0.764014 -1.43957 1
-0.0153434 -0.00812871 1
0.130884 -0.0682733 1
0.236152 -0.0652076 1
-0.319341 0.185822 1
-0.118122 0.181982 1
0.0440108 0.177343 1
-0.513925 0.2753 1
-0.675772 0.379079 1
-0.364795 0.363518 1
-0.838054 0.483263 1
-0.687488 0.544247 1
-1.34919 0.621777 1
-1 0.6 1
-1.15085 0.646782 1
-1.66237 0.610053 1
-1.44001 0.80395 1
-2 0.8 1
0.359735 -0.356379 1
0.332059 -0.180319 1
0.498974 -0.496191 1
0.69552 -0.851853 1
0.595587 -0.697191 1
0.8 -1 1
0.862769 -0.870238 1
0.92602 -1.138 1
1.2 -2 1
0.99053 -1.65609 1
0.963802 -1.33804 1
1.6 -2 1
0.18092 0.077061 1
0.352416 0.00396241 1
-0.199018 0.349023 1
-0.0174415 0.338398 1
0.180876 0.295539 1
-0.502055 0.495304 1
-0.294968 0.510189 1
-0.819605 0.697927 1
-0.60201 0.684201 1
-1.19657 0.825967 1
-1 0.8 1
-0.862995 0.870568 1
-1.3559 0.960018 1
-1.20749 1.01288 1
-1.62714 0.997923 1
-2 1.2 1
-2 1.6 1
0.506393 -0.283908 1
0.50699 -0.0924818 1
0.684798 -0.551655 1
0.671572 -0.385376 1
0.818323 -0.699334 1
1 -1 1
1 -0.8 1
1.11567 -1.17605 1
1.40639 -1.70173 1
1.25158 -1.41099 1
1.73443 -1.73906 1
2 -2 1
0.349651 0.185334 1
0.511335 0.096949 1
0.36202 0.350652 1
-0.105575 0.506206 1
0.084287 0.494607 1
0.2712 0.494783 1
-0.403005 0.671715 1
-0.203604 0.670469 1
-0.695371 0.854913 1
-0.505977 0.839601 1
-1 1 1
-0.8 1 1
-1.11195 1.11821 1
-1.32046 1.18672 1
-1.61124 1.42471 1
-1.7182 1.75316 1
-2 2 1
0.669791 -0.193691 1
0.671912 0.00164409 1
0.835199 -0.489513 1
0.835069 -0.296198 1
1 -0.6 1
1.1408 -0.85992 1
1.19752 -1.00206 1
1.17039 -0.695552 1
1.36537 -1.12628 1
1.65578 -1.39805 1
2 -1.6 1
0.512895 0.286363 1
0.674274 0.196755 1
0.49148 0.495987 1
-0.00837006 0.667243 1
0.185032 0.665471 1
0.378935 0.669154 1
-0.304646 0.834291 1
-0.105062 0.833169 1
-0.6 1 1
-0.4 1 1
-0.940036 1.13236 1
-0.756353 1.12574 1
-1.09177 1.25909 1
-1.18096 1.49028 1
-1.37432 1.74674 1
-1.6 2 1
0.834734 -0.0983393 1
0.836456 0.0998518 1
1 -0.4 1
1 -0.2 1
1.17342 -0.48134 1
1.355 -0.846244 1
1.32417 -0.606081 1
[...]
POINT_DATA 3210
SCALARS scalars float 1 
LOOKUP_TABLE default
0.00102899
0.00100695
0.00748853
0.00115916
0
0.0317028
7.04261e-05
0.00130813
0.0081309
0.000135244
0.00330309
0.001025
0.0387608
0.00847728
0.0031897
0.00123186
1.6515e-05
5.99485e-05
0.000216677
0.000562527
0.00054366
0.00525701
0.00492795
0.00619578
0.00447421
0.000361177
0.000728303
1.26216e-05
4.80388e-05
3.95402e-05
0.000145944
0.0490238
0.0174145
0.0162554
0.0107054
0.00929487
0.000650374
0.00110009
0.000102427
1.11401e-05
5.13794e-05
3.9284e-05
0.000124906
3.99221e-05
0.00860922
0.00710798
2.19647e-05
0.000853287
0.000597743
0
3.967e-05
2.25577e-05
0.00186859
0.0100577
0.0153945
0.00767468
0.00300177
0.00116361
0.00519753
0.00569744
0.00142873
0.000115639
4.9648e-05
3.35621e-05
0.0012091
0.00589839
0.00575911
0.00172341
0.00471596
0.000515364
0.00251102
0.000118858
2.02121e-05
7.78608e-05
0.000460773
0.000706035
0.00721794
0.00186823
0.00626479
0.0375771
0.040603
0.0360128
0.0296864
0.0196546
6.36886e-05
0.000221156
5.26441e-05
0.000307391
0.0021098
0
0.0724348
0.164698
0.0898918
0.0614872
3.18299e-05
0.000179808
0.00032743
0.00031469
0.00249453
0.00354485
0.125368
0.158718
0
0.0651365
0.0391739
0.0924768
0.12195
0.0432925
0.0204611
1.91181e-05
0.000165029
0.00065843
0.000124967
0.108882
0.142674
0.116975
0.0843548
0.0951465
0.0411344
0.00173372
5.44695e-05
0.00155297
0.00201642
2.96791e-05
0.0399041
0.0451392
0.0243601
0.0213471
0.0324634
0.0317015
0.0175551
0.0597861
0.0520166
0.036928
0.0134201
0.012806
0.0163051
0.00229385
0.000177904
5.62849e-05
7.11308e-06
0.0287427
0.0207109
0.00430031
0.0355568
0.0386267
0.0185348
0.0138336
0.00113712
1.70157e-05
4.17724e-05
2.54318e-05
2.4182e-05
0.0325348
0.0236837
0.0190561
0.0323343
0.00658672
0.0163406
0.0111943
0.0552562
0.01042
0.0123432
0.0270713
0.0102466
0.00375633
0.00143609
0.000674746
0.00168094
2.05236e-05
4.315e-06
8.69843e-06
0.0335528
0.0196216
0.0104909
0.0235717
0.0118901
0.00210133
0.00453336
0.000868926
0.00102182
6.80136e-05
3.98752e-06
7.94248e-06
7.49136e-08
9.6141e-07
0.0303987
0.00549701
0
0.00827762
0.0093749
0.00703907
0.0121557
0.00980037
0.00556249
0.00468481
0
0.000840732
0.00100197
0.00224991
0.00139749
1.29155e-05
8.91383e-06
2.60333e-06
3.24946e-06
0.0033096
0.00526322
0.00239771
0.00197179
0.0154185
0.0158583
0.00467813
0.000198864
0.000583753
0.000474797
5.51714e-06
1.85113e-06
4.05882e-06
0.00134326
0.00464979
0.00462025
0.00340943
0.00323992
0
0.00121554
0.0130837
0.00553131
0.00529655
0.00380559
0.00232342
0.000730627
0.000254541
0.000299885
1.86189e-05
5.0601e-06
1.76727e-07
1.32368e-06
0.00162003
0.0041887
0.00440837
0.00337513
0.00328114
0.00325067
0.000366478
1.68747e-05
1.12382e-05
5.25263e-06
2.18505e-06
3.97749e-06
0.0125066
0.0121052
0.0150785
0.0046313
0.00243542
0.00141712
0.016082
0.0111792
0.00305697
0.00851787
0.0126637
0.00181083
0.000533563
6.19895e-05
1.19163e-05
3.56764e-05
9.21974e-06
0.000493803
0.000909631
0.0242186
0.00221586
0.00580349
0.000221417
4.8039e-05
1.66782e-05
7.16252e-06
0.0169001
0.0137912
0.0176434
0.0170404
0.0204855
0.0109985
0.00976106
0.012656
0.00197833
0.000777169
0.000757792
2.88432e-05
1.33058e-05
4.14049e-06
4.66706e-06
0.000437938
0.00119165
0.00147682
8.56406e-05
2.07913e-05
2.79004e-06
1.65908e-06
0.00562697
0.00415602
0.000679446
0.0122516
0.0130587
0.0122839
0.000827932
0.00305132
0.00163573
3.22749e-05
1.79908e-05
0
4.83065e-06
6.67954e-06
1.0758e-05
0
1.5576e-05
1.62989e-05
5.38028e-06
0
0.000115987
0.000365097
0.00113485
0.000697494
8.29864e-05
2.6269e-05
1.79239e-05
5.69762e-06
1.5323e-05
1.0784e-05
5.23709e-10
7.03001e-06
1.08071e-05
3.40694e-06
1.53572e-05
3.08455e-05
7.19595e-05
0.000116948
7.12431e-06
7.93238e-06
9.13983e-06
4.64486e-06
2.22059e-06
8.04533e-06
5.40611e-06
1.02932e-05
1.20814e-05
9.89153e-06
7.25901e-06
2.58827e-06
2.24479e-06
3.07913e-06
2.50958e-06
3.81054e-06
1.36785e-06
3.32527e-06
1.95944e-06
2.08371e-06
1.44057e-06
0.00354692
0.00230431
0.00051067
0.00085911
0.00569057
0.0119796
0.00887364
1.13493e-05
0.000735666
0.000552455
2.27482e-05
5.14029e-06
0.00866329
0.0113289
0
0.00713039
0.000728939
4.18223e-06
1.42353e-05
0.000664817
0.000139752
0.000298555
0.000156823
0.00408537
0.0183514
0.00381069
0.0024387
0.000694086
9.87984e-06
2.44811e-05
8.2283e-06
0.00166924
0.00313036
0.00770316
0.00228019
0.00297214
0.00405352
0.00080628
0.00107434
0.000153315
4.99213e-06
1.29069e-05
7.51965e-06
2.12154e-05
0.00507791
0.0143162
0.00978086
0.00217375
0.00123268
0.00035493
2.36675e-05
7.08447e-06
7.4335e-06
0
0
0.0269258
0.000572022
0.00522241
0.00317157
0.00421345
0.000342036
0.000148217
9.43336e-06
7.30074e-06
4.6206e-06
0.000519721
0.00627333
0.0209873
0.0121623
0.00821732
0.00300502
5.1392e-05
2.82342e-05
8.90988e-06
1.52521e-05
4.69719e-05
0.000444834
0.000883803
0.0100723
0.010153
0.00738874
0
0.00209893
0.00159879
2.5324e-05
2.62479e-06
7.89509e-06
0.000146696
4.20388e-05
0.0170634
0.0163301
0.0101522
0.00815687
0.00282352
0.00205392
1.15349e-05
1.47721e-05
1.27301e-05
0.000276447
1.07345e-05
0.00636792
0.00517908
0.00217106
0.00373201
0.0016986
0.00440747
0.00765333
0.00215779
0.000813268
0.000249959
8.70718e-06
1.00593e-05
1.20386e-05
0.000369226
0
0.00482926
0.0014155
0.00639102
0.00986622
0.00172042
0.000748834
1.55082e-05
0.000147052
1.43472e-06
1.33507e-05
6.94557e-05
0.00444294
0.00534778
0
0.00241826
0.00466342
0.00285657
0.00183298
0.00150302
0.00646947
0.00276191
0.00166198
0.00160956
0.000566946
1.06373e-05
9.35392e-06
5.68811e-06
0.000762349
0.00343427
0.000804542
0.00115773
0.00372179
0.00685792
0.00373528
0.000188786
8.88356e-05
6.06193e-06
7.9025e-06
1.00809e-05
0.00268866
0.00460386
0.00433049
0.00817632
0.00499899
0.00343926
0.0022421
0
0.00115804
0.00548258
0.0022836
0.00409959
0.000421004
0.000257801
0.000866158
0.00107198
1.09348e-05
3.4993e-06
2.79195e-06
0.00114714
0.0100639
0.0108763
0.00735885
0.00343443
0
0.0019946
0.000789339
0.000852993
3.04066e-05
2.35967e-06
4.54124e-06
6.38337e-06
0.000254069
0.00225717
0
0.00101397
0.00402071
0.00797081
0.00691946
0.00538684
0.00338626
0.00132518
0.00214514
0.00141303
0.00031443
0.000676621
0
0.000400664
1.34032e-05
1.28578e-05
4.13111e-06
2.85474e-06
0.00225495
0.000820586
0.00363282
0.00317703
0.00213691
0.000713786
0.000425861
0.00034971
0.00108754
0.000844432
1.27002e-05
4.79852e-06
1.1624e-05
0.000683112
0.00829351
0.0148988
0.0101641
0.0139276
0.0124953
0
0.0111886
0.0178484
0.018014
0.0091919
0.00788325
0.00161737
0.000472115
0.000419119
1.2684e-05
4.51879e-06
9.81697e-07
7.36434e-07
0.00334785
0.0102306
0.0106989
0.00327928
0.00351349
0.0019349
0.00022389
1.3076e-05
1.34263e-05
9.15133e-06
2.03501e-06
8.36011e-05
0.00928389
0.0100691
0.00367253
0.00113012
0.00689145
0.0073311
0.0120906
0.00476841
0.00534488
0.00519454
0.00129275
0.000528418
0
8.30325e-06
1.27606e-06
2.11089e-06
1.01648e-06
0.00199807
0.00250834
0.00219301
0.000168769
0
9.8074e-06
8.97035e-06
6.93723e-06
1.77252e-06
0.0036246
0
0.00141078
0.00125554
0.00356018
0.00139072
0.000594376
0.000576083
0.000867242
0.000142656
7.98147e-05
2.36222e-05
1.73502e-05
1.87865e-06
6.51557e-06
0.000374296
0
0.000275886
2.66284e-05
1.19989e-05
1.09731e-05
8.51897e-07
0.00165705
0.00121751
0.000428986
0.00127104
0.00156382
0.000880844
0.000161158
7.44963e-05
0.000630432
4.75202e-05
3.30279e-05
1.55355e-05
1.58412e-05
1.3511e-06
9.4975e-06
2.05343e-05
1.13057e-05
9.44563e-06
1.79385e-06
0.000606502
0.000157492
0.000408112
0.000948016
0.000616604
8.79198e-05
1.45216e-05
8.46848e-06
1.83249e-05
1.76737e-05
9.21455e-06
3.38068e-06
1.13094e-05
8.49382e-06
4.24449e-06
0
5.06225e-05
5.72176e-05
2.57611e-05
6.96445e-06
0
1.20712e-05
4.90353e-06
5.68568e-06
3.60565e-06
2.37522e-06
2.60424e-06
1.01436e-05
1.04526e-05
9.04885e-06
6.94042e-06
5.00326e-06
3.71067e-06
3.88383e-06
3.52226e-06
2.10785e-06
0
1.54886e-06
5.93907e-07
1.66776e-06
0.00406311
0.000908595
0.000157022
0.00140267
0.000656928
0.00252908
0.000602899
6.34882e-06
0.000387563
0.000173584
1.6813e-05
0.00553261
0.00939405
0.00776544
0.00463822
0.00329464
0.000173159
0
8.31864e-06
0.000733757
7.08457e-05
0.00080953
0.000221614
0.00399827
0.00174746
0
0.000494034
0.000172534
4.17168e-06
2.90393e-05
2.05906e-05
0.00558226
0.0125654
0.0115969
0.0146597
0.0124795
0.00828472
0.00104968
0.00137524
0.000204678
6.26775e-06
1.49395e-05
2.52734e-05
3.50795e-05
0.00603615
0.0120145
0.00738919
0.00112702
0.000495805
0.000122036
2.34841e-05
5.32755e-06
7.15653e-06
0.00047649
0.00992597
0.0131101
0.012439
0.00929663
0.0132285
0.0121006
0.00216176
0.000359303
5.58132e-05
6.44014e-06
1.75703e-05
0.000778419
0.000604373
0.00202334
0.000908085
0.0104975
0.00394135
8.80018e-05
2.73028e-05
1.78348e-05
5.02322e-05
0.000639172
0.0014763
0.00116517
0.000246151
0.0023371
0.000731707
0.00750102
0.00336328
0.00423858
4.55314e-05
9.86611e-06
0.000336952
0.00052341
4.86149e-05
0.00438689
0.00292359
0.00321775
0
0
0.000578447
3.82644e-06
4.19375e-06
1.74858e-06
0.000661838
0.000577831
0.00885921
0.0106419
0.00598978
0.00386015
0.00363694
0.00221496
0.000458246
0.000999987
0.000164534
2.87452e-05
1.13204e-05
2.77386e-05
2.59242e-05
0.00285864
0
0.00889782
0.00253652
0.00330052
0.00131917
0.00119381
0.000139557
6.06292e-06
0
2.32338e-05
0.000229536
0
0.00076171
0.0118818
0.00591237
0.00308934
0.00553919
0.00296881
0.00264952
0.00226661
0.0022153
0.00159617
0.000243039
0.000318475
0
5.41821e-06
9.5068e-06
1.35718e-05
5.86444e-07
0.00895449
6.77092e-05
0.00210216
0.00245731
0.00253827
0.000786919
0.00123453
8.02111e-05
2.5796e-06
1.41904e-06
1.70282e-06
0.00620857
0.00935178
0.00504897
0.00256569
0.0038811
0.00184556
0.00295418
0.00132308
0.00091716
0.00284161
0
0.00239176
2.7394e-05
0.00120872
0.00278494
0.00173778
2.91237e-05
1.03554e-05
1.13097e-05
0.00325341
0.00220373
0.000980235
0.000830062
0.00953682
0.0073467
0.00224913
0.0038503
0.00262003
1.83354e-05
7.56982e-06
6.808e-06
5.46082e-06
0.00148944
0.0104025
0.00384401
0.00310212
0.00810808
0.00935454
0.00961774
0.00671661
0.0084407
0.00203545
0.00214252
0.00305897
0.000313729
0.000687587
0.000394086
2.5427e-05
4.50822e-06
4.33041e-06
1.42472e-06
1.28399e-06
0.00356462
0.00458899
0.00489279
0.00354999
0.00250743
0.00158731
0.000335394
2.91439e-05
0.000364249
7.55092e-05
3.02725e-06
5.5078e-06
1.30457e-06
0.00375315
0.00757467
0.00352803
0.006185
0.00546502
0.00343157
0.00118741
0.00214884
0.00206263
0.000686398
0.00116755
0.00127804
0.000701013
0.000102981
0.000153954
7.40056e-06
5.20072e-06
7.39291e-07
0
0.00115709
0.00263369
0.00216705
0
0.000416837
0.000370791
3.96239e-05
0
2.74654e-06
2.71793e-06
1.0536e-06
0.000254227
0.000634377
0.00308053
0.00186466
0.000758474
0.00362752
0.00347824
0
0.00119164
0.00185793
0.00114406
0.000504323
0.000110526
9.65647e-05
0
1.46565e-06
1.42668e-06
1.80157e-05
0.00105618
0.000509208
0.00162572
0.000673366
0
2.41668e-05
9.7565e-06
9.54965e-06
9.64737e-05
0.00135854
0.00134314
0.00142363
0.00207896
0.000692659
0.00242963
0.00198836
0.00191242
0.000739508
0.000467512
0.000103911
1.30356e-05
8.62633e-06
9.67019e-06
5.49627e-06
0.00052901
0
0.000318061
2.35443e-05
1.27984e-05
0
8.45287e-05
0.00120632
0
0.00161661
0.00160903
0.00192735
0.000814276
0.000472215
0.000291641
0.00015583
8.92185e-06
2.22184e-05
1.65645e-05
1.8519e-05
5.75179e-06
2.96317e-05
2.74635e-05
1.56802e-05
7.98507e-06
2.83555e-05
0
0.000116379
0.000155592
0.00167453
0.000538867
0.000126993
2.51848e-05
1.51083e-05
6.60445e-06
9.7196e-06
2.08373e-06
9.91978e-06
1.58894e-05
0
1.03103e-06
1.98475e-05
8.33572e-05
9.89805e-05
3.07305e-05
0
9.45594e-06
6.76454e-06
1.53618e-06
9.89763e-06
6.80574e-06
8.15795e-06
8.40831e-06
1.06043e-05
3.77804e-06
4.88934e-06
2.04406e-06
3.21679e-06
1.43443e-06
5.53284e-06
6.21794e-06
4.1366e-06
2.91158e-06
2.27822e-06
2.02708e-06
1.20767e-06
0.00332437
4.6771e-05
0.000300898
0.00158659
0.000451277
0.000836681
0.0010992
1.02373e-05
0.00050196
6.06621e-05
5.92377e-06
0.0033615
0.0008898
0.00101899
0.00138587
0.000829177
1.43447e-06
5.74761e-06
0.000130952
0.000425369
1.68114e-05
0.000724144
0.000315582
0.00308762
0.00245895
0.000606524
0.000670255
2.12313e-05
5.39462e-06
9.08846e-06
4.18121e-06
0.00120907
0.0010569
0.00682688
0.00304144
0.00209688
0.000768957
0.000539942
0.000445934
6.83734e-06
4.08768e-06
2.72552e-06
4.3772e-06
0
0.000467618
0.000252093
0
0.000367185
0.00042494
0.000102967
2.38644e-05
0
8.14497e-06
0.000711673
0.00266462
0.00409188
0.00148749
0
0.00265783
0.00143706
0.000267817
1.2985e-05
2.50847e-05
3.66228e-06
1.34262e-05
0.000230678
0.00413822
0.00490692
0.00540038
0.0020158
0.000268095
2.44872e-05
3.43054e-06
3.57476e-06
1.27892e-05
0
0.00193347
0.00607029
0.00189392
0.00637285
0.00439385
0.00620053
0
0.0029112
2.91012e-05
8.80282e-06
0
0.000139116
4.01723e-05
0
0.000555169
0.00527574
0.00475651
0.00324119
7.3792e-05
2.08456e-05
3.73767e-05
0.000102224
0.000443178
0.000715725
0.00142752
0.000930117
0.000321617
0.00345231
0
0.00802017
0.00521178
0.00258427
0.00340031
0.000157844
2.2398e-05
4.65617e-05
2.54845e-05
0.00186554
0.00217984
0.00142539
0.000482967
0.00029496
0.00335342
0
1.3187e-05
1.51828e-05
0.000533721
5.57884e-05
0.00101691
0.00143746
0.000588146
0.00747095
0.000337517
0.00321702
0.00842816
0.00742215
0.00613057
0.00565045
0.00639818
0.00664686
0.000829322
0.00262228
0.000299911
8.81381e-06
9.00728e-06
0.000492173
0.0073051
0.0064526
0.00739789
0.00449628
0
0
0
0.00187187
6.97135e-05
6.17947e-06
7.5003e-06
0
0.00303242
0.00442978
0.00513996
0.00417208
0.00477986
0.00155077
0.00132679
0.00292363
0.00355056
0.00168161
0.000598769
0.000479542
4.80678e-05
0.000373353
0.000808625
0.000534571
7.69349e-06
6.39786e-06
0.000597533
0.00364368
0.00276731
0.00247914
0.0011229
0.000582232
0.00135499
0.000591095
0.000725156
0.000175635
3.49524e-06
1.47506e-06
3.58795e-06
2.06249e-06
0.00185667
0.00395152
0.00123934
0.000919507
0.0027542
0.00178374
0.000853295
0.00227804
0.00265135
0.002167
0.000785306
0.00171329
0.000123028
0.000609294
0.000505332
0
1.23318e-06
1.09632e-06
1.49805e-06
7.39251e-07
0.00053391
0.00120978
0.00127242
0
0.000368399
0.000357237
6.4644e-05
2.40255e-05
5.31237e-05
1.96424e-05
0
9.88199e-07
9.60894e-07
0.00270357
0
0.00148428
0.00250271
0.00183457
0.00288311
0.000658248
0.00273483
0
0.000876663
0.000844413
0.00133681
0.000247723
0.000105314
0
1.08489e-05
6.87377e-06
2.59909e-06
8.94244e-07
0.00225511
0.000928707
0.00100598
0.00137723
0.0010421
0.000378178
1.86573e-05
2.11742e-05
2.77248e-05
9.75507e-06
2.14391e-06
0.00119878
0.0011252
0.00147877
0.000839252
0.0036503
0.00435777
0.00391875
0.0033783
0.00271454
0.00170472
0.00166448
0.000161847
0.000249189
1.78503e-05
5.03234e-06
0
0
0.000567639
0.0019504
0.00196821
0.000535328
0.000222111
6.70314e-05
2.47493e-05
1.56186e-05
1.02779e-05
0.00117681
0.00337094
0.00198635
0.00271972
0.0021568
0.00137707
0
0.00184885
0.000582559
0.000778445
0.000629904
0.000153687
1.9316e-05
1.1847e-05
3.99928e-06
2.01627e-06
0.000180814
0.000536528
0.000307342
0
0
8.67062e-06
0.000504294
0.00170542
0.000269389
0.000628057
0.00185377
0.00116415
0
0.000792482
0.000668643
0.000259728
2.52982e-05
2.34672e-05
4.96011e-06
6.07713e-06
1.82163e-06
3.09671e-05
1.91103e-05
2.07203e-05
1.41645e-05
0.000295894
0.000528205
0.000235203
0.000796379
0.00130571
0.000383179
5.23711e-05
2.25051e-05
0
9.38358e-06
4.5789e-06
5.24408e-09
2.47882e-05
1.85069e-05
9.62591e-06
1.22667e-05
0
2.0425e-05
2.7719e-05
1.94082e-05
8.7349e-06
1.79834e-05
1.46822e-05
8.13983e-06
1.0604e-05
6.42503e-06
0
1.08627e-05
1.15033e-05
1.0623e-05
7.38146e-06
5.21126e-06
2.2254e-06
2.49734e-06
2.5189e-06
1.40311e-06
1.17113e-06
3.81778e-07
2.01832e-06
2.42712e-06
1.04324e-06
0.00132689
6.48981e-05
0.000427076
0.00119205
0.000454433
0.000426899
4.7423e-05
0
4.38125e-05
0
0
0.00207378
0.00342137
0.00371886
0.00317049
0.00169759
1.75322e-06
4.03322e-06
4.5698e-05
9.12975e-05
1.99939e-05
0
0.00022155
0.000685057
0.000247608
6.6345e-05
0.000629701
2.08353e-06
1.08822e-05
4.8551e-06
7.31879e-06
0.00267892
0.003308
0.00174381
0.00037549
0.000942492
0.000101792
5.9229e-05
0.000328856
1.51094e-06
6.00454e-06
1.32658e-05
2.43096e-05
1.20642e-05
0.00142864
0.00230632
0
0.000422659
0.000282383
1.6296e-05
0
2.02971e-06
1.51159e-06
4.04577e-08
0.000464679
0.00365782
0.00213299
0.00159855
0.00195954
0.000507291
0.000227114
1.71457e-05
1.0313e-05
3.07794e-06
4.75733e-06
3.85055e-05
0.00216154
0.00256294
0.00163418
0.00103987
0
2.59313e-05
0
5.72945e-06
5.3018e-06
0.000110557
0.00182906
0.00309226
0.00232406
0.00177229
0.000582748
0.000337705
0.000656965
0.000502925
6.14176e-06
3.68743e-06
0.000129091
1.30098e-05
0.000687254
0
0.000594685
0.00326365
0.00186072
0.000590321
0.000209409
6.21973e-06
0
4.72414e-05
6.10827e-05
0
0.00300014
0.00337601
0.00253062
0.00162058
0.000846109
0.00143747
0.00106053
0.000845656
0.000571803
3.83898e-06
6.39819e-06
0
9.51224e-06
0.00393587
0.00235021
0.00373633
0.00147032
0
0.000766306
0.000636049
5.63346e-06
3.67238e-06
0.000100283
4.21152e-06
0.000470494
0.00407718
0.00462655
0.00354639
0.000719893
0.000808803
0.00233499
0.00253208
0.00135394
0.00173451
0.00218601
0.00262845
0.000431864
0.000774747
6.03429e-05
3.12588e-06
6.57267e-06
0.000216109
0.00344653
0.00313405
0.00168561
0.000659189
0.00215626
0.00154308
0.000952149
0.000667168
4.5133e-06
5.60408e-06
3.05144e-06
0.000254243
0.00249532
0.00159616
0.000623443
0.00227113
0.00277788
0.00323592
0.00107812
0.00195337
0.00203271
0.000895816
0.000564445
0
3.55767e-05
0.000194927
0.000610467
3.18963e-05
0
7.33725e-07
0.000434306
0
0.000469542
0.0005839
0.000593534
0.000330985
0.000231907
0.000844146
0.000659274
1.1663e-05
3.36522e-06
3.18947e-06
1.84642e-06
8.42135e-07
0.00190851
0.00178722
0.00282519
0.000629034
0.00299901
0
0.00101368
0.00143964
0.00205883
0.00133092
0.000677094
0
0.000457669
0.00145917
0.00155535
2.12021e-05
1.08879e-05
9.8637e-07
1.54692e-06
0.000182809
0.00159356
0.00217882
0.000726598
0.0051057
0.00318806
0.00282686
0.000146735
0.000241937
9.92578e-05
5.36759e-06
1.53244e-06
4.76672e-06
1.41772e-06
0.00430424
0
0.00309919
0.00247602
0.00313882
0.000961787
0.0014458
0.00197919
0.00085199
0
0
0.00147153
0.000177741
0.000332862
5.07215e-05
2.61061e-06
1.60777e-06
1.85372e-06
1.4196e-06
0.00484261
0.00408669
0.00247349
0.00183587
0.00143264
0.000271784
1.18964e-05
4.78093e-06
1.39204e-05
2.04462e-06
4.47473e-06
0.00335832
0.00426845
0.00352718
0.00174143
0.00112453
0.00170699
0.000826147
0.00198875
0.00303885
0.00331861
0.00244795
0.00011258
5.17441e-06
5.3655e-05
1.44324e-05
0
6.4405e-06
0.000364321
0
0.00382699
0.00114285
0.00117482
0.000273283
3.54648e-05
9.98817e-06
7.53315e-06
0.000499546
0.00232721
0.00149243
0.00464757
0.00477549
0.00382499
0.00351375
0.00380512
0.00259964
0.00102315
0.000921534
0.000149646
4.45005e-05
6.57598e-06
1.08324e-05
1.24487e-05
0.00123541
0.00126759
0.000271549
6.625e-05
2.79735e-05
1.39866e-05
0.000356293
0.000426306
0.000424592
0.000854879
0.00402046
0.00310125
0.000924283
0.000947437
0.000966821
0.000331071
5.67616e-05
0
2.9682e-05
2.19177e-05
1.65198e-05
1.68288e-05
1.81341e-05
8.40004e-06
2.98872e-06
0.000149366
7.36416e-05
0.000324906
0.00136979
0.00122509
0
0
2.23716e-05
1.79056e-05
8.21887e-06
3.01484e-06
9.39783e-07
7.1665e-06
0
9.95922e-06
2.83323e-05
8.61619e-05
0.000101716
0
1.88047e-05
2.50969e-05
1.43401e-05
1.16844e-05
4.83883e-06
6.13543e-06
2.34734e-06
2.98527e-06
3.7493e-06
2.36302e-06
1.54651e-06
0
5.31744e-06
5.87114e-06
3.38077e-06
4.80443e-06
3.32229e-06
1.28873e-06
1.22685e-06
6.55573e-07
3.63049e-07
3.68133e-05
0.000112696
7.23339e-06
0.000451154
1.97259e-06
0.000621202
0.0012262
3.61959e-06
0.000114934
8.80391e-05
8.40949e-06
0
0.00252992
0.00205993
0.00157147
0
0.000288522
8.44655e-07
1.0419e-06
2.72493e-05
4.85756e-05
6.90566e-05
0.000173482
0.000572217
0.00106324
0.000697359
0.000220983
0.000184362
1.62384e-06
3.37719e-06
2.07383e-06
0.000214494
0.00161598
0.000721346
0.00298558
0.00278855
0.00230883
0.000168816
0.000580152
0.000106989
2.24746e-06
7.29836e-06
6.07258e-06
1.01498e-05
4.77454e-05
0.000332161
0.000215111
0.000602079
0
0.000344792
2.32135e-05
7.32773e-06
3.68025e-06
4.22389e-05
0