# vtk DataFile Version 2.0
HASEonGPU gain medium input
ASCII
DATASET UNSTRUCTURED_GRID
POINTS 3210 double
-2 -2 0
-0.87058413649334643 -0.86437484108710372 0
-1.0898830721527657 -1.2639106255526662 0
-1.6000000000000032 -2 0
-0.70108592761554689 -0.82338392466828192 0
-0.85183475485118476 -0.69849028076723652 0
-1.7468944848753079 -1.7188382599398615 0
-1.2688715608246131 -1.3165767049188102 0
-1 -1 0
-1.2553244705419948 -1.1361665730779107 0
-1 -0.79999999999999982 0
-2 -1.5999999999999996 0
-0.8000000000000016 -1 0
-0.60000000000000142 -1 0
-1.3835417766750031 -1.5954365611020183 0
-1.1441256644326034 -1.4474257349345445 0
-0.87819303150415018 -1.2327214878744641 0
-0.9739638299291562 -1.4073138540337873 0
-1.2000000000000028 -2 0
-0.48887727635732087 -0.83814376019362591 0
-0.55172289650808137 -0.69001781761162961 0
-0.69367695623873371 -0.60300692207255246 0
-0.8432672555500329 -0.50219288189140032 0
-1 -0.59999999999999964 0
-1 -0.39999999999999947 0
-1.7509306477015343 -1.3987547385972887 0
-1.4754388549411905 -1.2704634268952359 0
-1.2113816216891429 -0.91247447155394601 0
-1.4033702785347 -1.0238117561521232 0
-1.1942844932001331 -0.71443960081431235 0
-2 -1.1999999999999993 0
-0.29592030420726412 -0.83567314989563635 0
-0.40000000000000124 -1 0
-0.20000000000000107 -1 0
-0.67446493777396876 -1.2175946282779191 0
-0.48036026488033096 -1.1571085083495618 0
-1.0039999726873665 -1.6559468096511103 0
-0.74965349537920201 -1.4616120405240547 0
-0.80000000000000249 -2 0
-0.38749613507736691 -0.67342616598778993 0
-0.49925762712982619 -0.50454422178120917 0
-0.67812708091732554 -0.40431618725413382 0
-0.8399714482910996 -0.30317741132570358 0
-1 -0.19999999999999929 0
-1.1820734366545813 -0.49728474284067259 0
-1.1494391553051129 -0.31580850435313179 0
-1.6575648811917989 -0.99787276134588032 0
-1.4153104878580289 -0.80042889927932959 0
-1.3478238225197461 -0.59351707588256275 0
-2 -0.79999999999999893 0
-0.19707569817804538 -0.66788434090052717 0
-0.10008958565627553 -0.83433644428695075 0
-8.8817841970012523e-16 -1 0
-0.28366924369189245 -1.1758354213197573 0
-0.088185740066133445 -1.129911617779185 0
-0.44836737547541139 -1.3980577954870179 0
-0.63315721806258851 -1.7143281147952494 0
-0.40000000000000213 -2 0
0.090905981261919136 -1.180314505364231 0
-0.29033076024548338 -0.49851189537463791 0
-0.37373744566700712 -0.36055247757665254 0
-0.51971211525478511 -0.30197808659106778 0
-0.6787340889703346 -0.20477012392576058 0
-0.83873800688242328 -0.10362430758644882 0
-1 8.8817841970012523e-16 0
-1.2076131405176147 -0.1334018339609126 0
-1.3814922681226025 -0.33467224253215899 0
-1.6455204238399896 -0.58747207603025686 0
-1.1888062540144526 0.080070632427435395 0
-2 -0.39999999999999858 0
-0.10438083423137012 -0.49739611888011459 0
-0.0042365696505120773 -0.66796227097803307 0
0.09807853875910183 -0.83489772607756318 0
0.19999999999999929 -1 0
-0.085102081309122654 -1.3699345617225203 0
-0.23216438723077429 -1.68999129342006 0
0.18715910527785851 -1.351581442901763 0
-1.7763568394002505e-15 -2 0
0.33107204419602543 -1.2314872803844781 0
-0.20869861554400151 -0.31180436249396137 0
-0.36507015999666814 -0.19972967844096373 0
-0.52016485612125352 -0.10593608720787603 0
-0.6767912264355993 -0.0078529231134183315 0
-0.83773190208930481 0.09413915195281651 0
-1 0.20000000000000107 0
-1.4185538071426551 -0.03064615911479443 0
-1.7194220908785156 -0.18457530554278206 0
-1.1907895326650475 0.29348627250939291 0
-1.3635515160104825 0.18983972972716007 0
-2 1.7763568394002505e-15 0
-0.012684393716108987 -0.33577130642048458 0
0.086978017581727893 -0.50245493754185355 0
0.19310523951676084 -0.67066941587286344 0
0.29969190617799923 -0.83641836197406993 0
0.39999999999999947 -1 0
0.1741648137050025 -1.6532159992443458 0
0.37120279174631798 -1.4445309821181287 0
0.39999999999999858 -2 0
0.52599473348186465 -1.1606348340347488 0
0.56406005056635333 -1.3656953935600495 0
-0.19768512966185539 -0.10803712480044333 0
-0.076143570687630502 -0.19026749816392702 0
0.059422805918095324 -0.18326095967987707 0
-0.35714259349811595 -0.011306555277001733 0
-0.2026187006369421 0.046603777466718579 0
-0.51045235317451876 0.087113511016506454 0
-0.6753495891076563 0.18665475255350797 0
-0.83742442128330696 0.29215276647146049 0
-1 0.40000000000000124 0
-1.1767369205754155 0.49428642857632621 0
-1.650447274399069 0.1988612138005327 0
-1.4156425053899342 0.39672084432543347 0
-2 0.40000000000000213 0
0.18400636461430553 -0.31712144048469448 0
0.18498345624188584 -0.15901503752959995 0
0.2820648476112686 -0.50835249263599203 0
0.39605469662097975 -0.67393070602966909 0
0.49644096623662443 -0.84435825929281683 0
0.59999999999999964 -1 0
0.58088703887377668 -1.668442878912398 0
0.79999999999999893 -2 0
0.7348415726469455 -1.2059914962292166 0
0.76401411849568002 -1.4395735114881125 0
-0.015343443875436808 -0.0081287147042650824 0
0.13088374949554316 -0.068273322729001967 0
0.23615184864163591 -0.065207609421919985 0
-0.31934131632273244 0.18582213252875709 0
-0.1181222245732725 0.18198216573713097 0
0.044010830486829619 0.17734329131816268 0
-0.51392453756175405 0.27529974661506973 0
-0.67577209888121237 0.37907883648899859 0
-0.36479457614011368 0.36351778339322038 0
-0.83805400031842547 0.48326317032159044 0
-0.68748762337258063 0.54424680231486655 0
-1.3491917414439387 0.62177650063225953 0
-1 0.60000000000000142 0
-1.1508498282798816 0.64678189215115345 0
-1.6623671307504748 0.61005320400817609 0
-1.4400119563206022 0.80394970405086796 0
-2 0.80000000000000249 0
0.35973459519495327 -0.35637919074202867 0
0.33205927037141686 -0.18031899138503815 0
0.49897435670165369 -0.49619148226738191 0
0.69551990195215729 -0.85185342754705495 0
0.59558687298290336 -0.69719073071562665 0
0.79999999999999982 -1 0
0.86276857971810783 -0.87023750001640221 0
0.92602049709911771 -1.1379966256881131 0
1.1999999999999993 -2 0
0.9905299063066223 -1.6560881706457011 0
0.96380162980741646 -1.3380401268304689 0
1.5999999999999996 -2 0
0.18092003828999931 0.077060977186862931 0
0.35241577903309329 0.0039624091742476849 0
-0.19901798854230238 0.3490227344977917 0
-0.017441484848112636 0.3383981204022094 0
0.18087582014188053 0.29553914299515993 0
-0.50205491991688866 0.49530403418569552 0
-0.2949682115802269 0.51018909445576555 0
-0.81960456828239692 0.69792672815875889 0
-0.6020103966827447 0.684200901056086 0
-1.1965746207831209 0.82596659194778699 0
-1 0.8000000000000016 0
-0.86299505359675732 0.87056786876994363 0
-1.3559026657027178 0.96001813675374714 0
-1.20749178623478 1.012884460085121 0
-1.6271401177311251 0.9979225975202638 0
-2 1.2000000000000028 0
-2 1.6000000000000032 0
0.50639294657722067 -0.28390836731178531 0
0.5069897608102335 -0.092481838424626581 0
0.68479780150420244 -0.55165541809978036 0
0.6715716388371531 -0.38537624659914843 0
0.81832299663838215 -0.69933407253495405 0
1 -1 0
1 -0.8000000000000016 0
1.1156665300391413 -1.1760512903655651 0
1.4063905011833888 -1.701734599646155 0
1.2515841323020322 -1.4109932474780615 0
1.7344291904814404 -1.7390556991665058 0
2 -2 0
0.34965128902272147 0.18533421577844975 0
0.51133485227908471 0.09694896828316614 0
0.36201986232072247 0.3506520563979012 0
-0.1055747056524254 0.50620581843823576 0
0.084286973973998314 0.49460672643305176 0
0.2711998835658469 0.49478310220845839 0
-0.40300547872643849 0.67171508184630391 0
-0.20360434788026338 0.67046881283540605 0
-0.69537069970138965 0.85491261569095778 0
-0.50597712426319075 0.8396014181461402 0
-1 1 0
-0.79999999999999982 1 0
-1.1119527529974549 1.1182115378913777 0
-1.3204629730267055 1.1867237938376616 0
-1.6112360983173741 1.4247133439913888 0
-1.7182010495835827 1.7531600672614644 0
-2 2 0
0.66979110390505125 -0.19369056025801068 0
0.671912498364579 0.0016440905906927161 0
0.83519859972040134 -0.48951266193554205 0
0.83506890287692392 -0.29619826184629766 0
1 -0.60000000000000142 0
1.1407983533252661 -0.85991989600381602 0
1.1975156423020372 -1.0020625404277739 0
1.1703902741223489 -0.69555164173114392 0
1.3653692242549873 -1.126279219270939 0
1.655779774704591 -1.398050697021245 0
2 -1.6000000000000032 0
0.51289482834917099 0.28636325292528869 0
0.6742741875904068 0.19675501749053056 0
0.49147956477751192 0.49598660200703082 0
-0.0083700574353257253 0.66724294082717028 0
0.18503238807212627 0.66547123372707684 0
0.37893543621799108 0.6691541169475812 0
-0.30464609540338794 0.83429107087498278 0
-0.10506153848377571 0.83316887056997735 0
-0.59999999999999964 1 0
-0.39999999999999947 1 0
-0.94003553126952677 1.1323552459032675 0
-0.75635268157412794 1.1257389254981804 0
-1.091773474456263 1.2590941896308381 0
-1.1809620203963087 1.4902784153286492 0
-1.3743227074225621 1.7467415522677467 0
-1.5999999999999996 2 0
0.83473444887420745 -0.098339347779871966 0
0.83645612025364668 0.099851846861491941 0
1 -0.40000000000000124 0
1 -0.20000000000000107 0
1.1734167968960914 -0.48134006709316679 0
1.3549977225545526 -0.8462436287676095 0
1.3241715042480973 -0.60608147138797674 0
1.6667936905429823 -1.0004248572517291 0
2 -1.2000000000000028 0
0.6756306733685391 0.39637396509790324 0
0.8378421769452622 0.2990530961962537 0
0.68753638441752596 0.59861689763710568 0
0.54570063104501343 0.68510543265723389 0
0.093690968468483682 0.8332720594633537 0
0.29045046575613748 0.83376878011670152 0
0.48504005446446641 0.83471721236533181 0
-0.19999999999999929 1 0
8.8817841970012523e-16 1 0
-0.57705350877060346 1.1957090401978592 0
-0.334943236457038 1.1771598484933465 0
-0.83271390420261115 1.3817743231492596 0
-1.0014100800324146 1.7218005898525617 0
-1.1999999999999993 2 0
1 -8.8817841970012523e-16 0
1 0.19999999999999929 0
1.1952882238150733 -0.26342414083900062 0
1.1246338345117119 -0.076805654268818913 0
1.401632225593068 -0.36732539015513155 0
1.6246154217437627 -0.63197559845057472 0
2 -0.80000000000000249 0
0.84172024388793754 0.49832781955889494 0
1 0.39999999999999947 0
0.84931222859629807 0.69592295842210772 0
0.69133563117359143 0.81793093830261943 0
[...]
POINT_DATA 3210
SCALARS betaCells double 1
LOOKUP_TABLE default
9.9120698623531462e-05
0.09994683487709774
0.00055325221892143931
0.00013464281618816952
0.10865327123472519
0.1067703421980947
0.00015586284051837324
0.00040030403953129407
0.01713283783189307
0.00052991876176848823
0.043519879988232271
0.000134682779145555
0.043513735356846127
0.044036423536040703
0.0002476308500500123
0.00038153216238724505
0.00075809846030777672
0.00047838192237037534
0.00017624235557238643
0.1077479933251615
0.11030215740334429
0.11032823273984316
0.1073639961982561
0.044041526511196763
0.044068201139098782
0.00020441455434447667
0.00032262718610170428
0.00076996163655462379
0.00046046153981496856
0.00095009833014094846
0.00017661678065349607
0.10782477760361903
0.04406415778313711
0.044078609066027535
0.00093527499600811988
0.0011331185396827451
0.00031314787261350207
0.00050574249691053865
0.0002159000879011973
0.110155121771432
0.11001413199780566
0.11018175383804779
0.10753952851391735
0.044080483800354134
0.0010750442340567434
0.0012028644665392164
0.00031363502144779394
0.00053555635362787575
0.00068369413059489643
0.00021655624133783423
0.11000982577984367
0.10787349943113468
0.044083747085831147
0.0011196807954213549
0.0012766352823298478
0.0006420026515924996
0.00034713966044031322
0.00024281587116453278
0.0011390263136120866
0.10998759884640064
0.1099054329561607
0.10999492993932504
0.11010759706449694
0.10757594054407285
0.044087791518535924
0.0010802810166294721
0.00068832731599415648
0.00039515361773019716
0.0011371467166020645
0.00024374702626488528
0.10992822862134087
0.11005529485133639
0.10780419936284193
0.044077553977438601
0.00071861904322207369
0.00039751425100128721
0.00074847623983666407
0.00025216246942266025
0.00099194043362487425
0.10980583931752884
0.109807266951873
0.10995177432034456
0.11009198088780084
0.10760902373686732
0.044083361120517091
0.0006631090081263589
0.00038368539316675722
0.0011025471400206057
0.00073322856202700311
0.00025358690253321308
0.10980416868599904
0.10992130889556154
0.11009069741864953
0.10777280507266308
0.044068056571433277
0.0004255028335452514
0.00060173796211790897
0.00024289001607632121
0.0011050950676511028
0.00066099674963165716
0.10977826035637074
0.10973130581473522
0.10977934314562464
0.10974599377420227
0.10974938478284338
0.10992945913352828
0.11012563688917099
0.1077038437376385
0.044069835936603477
0.0010730386956667574
0.00042834749955491722
0.00063232540228943504
0.00024300740560101358
0.10982689212483664
0.10979299671808991
0.10993180628768043
0.11017371384331386
0.10731307636317448
0.044040203877475377
0.00037929641340225448
0.00021445677048808357
0.00088853165114293983
0.00051647430857842762
0.10974420157531249
0.10975760407884393
0.1097633482664666
0.10980219621406245
0.10965748766676328
0.109755776182853
0.10997835626999251
0.11016708101616993
0.10991754341954271
0.10774644127651253
0.11028537876966134
0.00066494739174711808
0.044036292128155255
0.0010716881081943566
0.00037842580145118525
0.00050194279382700685
0.00021484006221077556
0.10991276293700813
0.10982506395425275
0.11008274625727009
0.10673162029021101
0.11026586005198659
0.04351000270660145
0.10019212940383285
0.00086139010272609702
0.00017448217452887041
0.00031162287802711131
0.0005323770189712471
0.00013300661065503039
0.1097319070225467
0.10984039784780363
0.10985588594606689
0.10982852881324968
0.10980586713597308
0.11007850137158454
0.10996043724520004
0.10884593567822955
0.11033502369818668
0.00083758409647394141
0.043514859443741456
0.10010035388810612
0.00051790921780074249
0.00065390962295909234
0.00032356157344073569
0.00017467491444952052
0.00013308769102471021
0.10999416037538526
0.10986652931762035
0.11026152130343964
0.11018335849847861
0.10887288804027979
0.017112789964740693
0.043506834487816219
0.00059540113064021508
0.00021099239957962163
0.00034871255115350228
0.00015235973185018058
9.7816177451723739e-05
0.10981923958657355
0.10996051967089825
0.10991389540519313
0.10985404906812417
0.10989020274482307
0.10998272302677187
0.11018843284608365
0.1100995053445092
0.10650369839885979
0.10762629933176909
0.017117363171273024
0.043509926493318127
0.00066156990966316704
0.0004279248013556678
0.00022956402996446759
0.00015275898189160106
9.7975068300782384e-05
0.11010220825225191
0.11010307846668324
0.10793640592895516
0.1078446689223916
0.044029864744162185
0.00090682731660535437
0.0006687662397675024
0.00097425260459060034
0.0004259469450722999
0.0002232302866357225
0.00013269517267503004
0.10999842366994594
0.11008759665882865
0.11007971584189487
0.11006666946415361
0.11006790501188191
0.11018693759279514
0.10789955158379982
0.1079350030766934
0.044035790953150668
0.044064864526774571
0.00084399706605986849
0.0010494576512035129
0.000527391813512875
0.00033597586447503596
0.00020631934849758631
0.00013298987443855796
0.10783560874710123
0.10776634695329414
0.044059556499939603
0.044076415122837727
0.0010696079677512183
0.00056419040803701184
0.00069770433874390353
0.00030295849934760155
0.00017366804257588114
0.11017038115717512
0.10769250167069078
0.1103399685775672
0.1102667375010446
0.10794317406373768
0.10793627536466216
0.10795365398649537
0.04407733504933415
0.044078888262031816
0.00098596771045948652
0.0011220728132444249
0.00054311717141584872
0.00028137161826411719
0.00017419900138537274
0.044077592771590637
0.044073246072071387
0.0010588317593229583
0.0012782197495674276
0.00065683547559992948
0.00039461469049139708
0.00021319780820746914
0.10750081551938501
0.044056908243515776
0.10700496611279432
0.10892148957293522
0.044078841860800251
0.044061602764616424
0.044038583635168736
0.0011409241517938381
0.0011513687335570301
0.00061349183491022816
0.000741891691773114
0.00034665541820317816
0.00021393163226514665
0.0011483237726347575
0.0012401980646057429
0.00069846065332592779
0.00040130415677447996
0.00024022564168648319
0.044032368700304685
0.0010716024455846938
0.043507806627095302
0.10048714300234884
0.043507109496221164
0.00111709757706893
0.0010963168060828669
0.0010955896197206369
0.00069434606748687729
0.00079968561420952272
0.00043565479908456132
0.00024166070215304603
0.00070446833469381702
0.00068618037750435318
0.00040410462540133865
0.00024983383595008485
0.00087275873095389838
0.00083085750249684833
0.017120856297952521
0.00080936594396125913
0.00066016830396383472
0.00067944212331470908
0.00044344973418898327
0.00025123475219700404
0.0005177280302284819
0.00038720469715189658
0.00024022694809405906
0.00051770382603495246
0.00057596398592091888
0.0006293958652235131
0.00049076869905091832
0.00049654729886047875
0.00038466687631713299
0.00024099789135184689
0.00031104267380380651
0.00021312954525451133
0.00034835843080056184
0.00038815585830046212
0.00031779520909138435
0.00021358485034956513
0.00021041256383833143
0.00017398511571179944
0.00023163486566941206
0.00017393974575886112
0.00015372562053869864
0.00013278543332881007
0.00013268475878763696
9.7890660788779745e-05
9.9743149031890056e-05
0.090780561281904232
0.00058339696188725281
0.0001357514031474136
0.098770565741082395
0.097023020685085698
0.00015742459246676714
0.00041163314420159035
0.015530323529602133
0.00055673466870691799
0.039317564247613158
0.00013598159226255188
0.039322701688708717
0.039822644804323425
0.00025139228151680289
0.00039147734832332412
0.00081836314676650944
0.00049455094439608343
0.00017819062159324858
0.097900625066291075
0.10024441826207413
0.10026841696368258
0.097601196146903282
0.039819321290754203
0.039860579949857783
0.00020749070537086193
0.00032901209676083068
0.00082485868540940939
0.00047977060632528709
0.0010353855609070552
0.00017859090872255744
0.09798182536771298
0.039850286015458702
0.039864134909636736
0.00098891254464071447
0.0012417754548094797
0.00031958064108170478
0.00052195541984395273
0.00021870270820610979
0.10013498237874729
0.10003133557345777
0.10009465754632581
0.09711687848472017
0.039883269954375078
0.0011558432237467756
0.0013192014185164861
0.00032005771873084145
0.00055404265889427609
0.00071163778867804539
0.00021931311779112422
0.10011955319874932
0.098046895143366744
0.03987080290990893
0.0012155498473681663
0.0013934295734545491
0.00066612910667277305
0.00035384561780290745
0.00024635578997751414
0.001247036713977328
0.09998750957705578
0.099904257005809585
0.09999804810352747
0.10010219913657399
0.09780147228031856
0.039879055490123626
0.0011659904062486101
0.00071595650235356046
0.00040407466877689138
0.001226855281305967
0.00024719708659288249
0.099914592624051765
0.099973435335829253
0.098027948346245314
0.039867523506849335
0.00074711709735486814
0.00040589779605127151
0.00078296352602857185
0.00025633374464858197
0.001077912849285628
0.099849362096277011
0.099833873092041864
0.099981228629697827
0.10006394360050408
0.097850416945195154
0.039879608661978767
0.00068704285609510118
0.00039164809969742542
0.0011891006280322011
0.00076316850786727389
0.00025702318937571595
0.099849551139937889
0.0999260207731167
0.10009638306767675
0.097968040471143561
0.039859706734900295
0.00043668191250371068
0.00062396894610642186
0.00024716564491832863
0.0012092395511677915
0.0006885313290367676
0.099804604027959709
0.099755199533877861
0.099774804061897135
0.09986447065247403
0.099741396473482236
0.099937736776999048
0.1000951703452836
0.097921776578712927
0.039867862698905479
0.001171948361786801
0.000438547389492901
0.00065580642829670939
0.00024626087950823517
0.099658958687865243
0.099835904912470366
0.10000083608201188
0.10004761494181749
0.097536470423829694
0.039816567418423418
0.00038726316902442423
0.00021755561505498738
0.00095866643637344362
0.00053259283016546125
0.099756371142312505
0.09983416866500798
0.099827529969867448
0.099848405641312657
0.099801269648259139
0.09978688411224404
0.099987842293712492
0.10011912842838634
0.099883693917348679
0.097949504329161496
0.10011151623273483
0.0006917767405500428
0.039814628828175568
0.0011673956842231268
0.00038634726911790639
0.00052322757347684481
0.00021754589768428726
0.099939335304276344
0.099907000157749212
0.10005311861759188
0.097036630621907843
0.10021045598751256
0.039317593455882677
0.090981606020869438
0.00093797759291153638
0.00017623007930382193
0.00031675183464690209
0.00055135132869987748
0.00013407819809612136
0.099762599214195988
0.09982565560395569
0.099884604926223003
0.099853061678200045
0.099831110016295105
0.10006395702661018
0.099971205515943407
0.098843071406561539
0.10023676416798616
0.00090399404912978605
0.039316256672776807
0.090907201645789651
0.00053538934250745452
0.00068956541136696279
0.00033169072868144899
0.00017650835213347637
0.0001343515619651181
0.099949331861426544
0.099957804128706321
0.10024829830429846
0.10013413741863438
0.099017359875752747
0.015502472480568456
0.039310371331544226
0.00062444072789923772
0.0002137537683697207
0.00035618638438604657
0.00015411853246395508
9.856978898384478e-05
0.099873896835304399
0.099932574290723539
0.099923645603514535
0.099952295037724265
0.099922562453771568
0.099985711022993889
0.10018459506249225
0.10008145537683102
0.096781619859478071
0.097833932927010384
0.015526203384368931
0.039303378682424568
0.0006988300368935531
0.00043944593442436726
0.00023285040672604208
0.00015442427340032049
9.8612349431424087e-05
0.10011514725460056
0.10010824941637958
0.098121152018689442
0.098054888719184774
0.039808532504703814
0.00098248477037751248
0.00070446773397485612
0.0010571514762565909
0.00043763384171138694
0.00022583067699765387
0.00013380975236725019
0.099998595447216954
0.10013750882614243
0.099817814479442574
0.10008225052175705
0.10011049155227868
0.10013461480936332
0.098070176779577828
0.098102635470664862
0.03981504046146922
0.039883901805238195
0.00091134167024517281
0.0011452223899597132
0.00054676948890419806
0.0003431753678770946
0.00020858763500477466
0.00013412953939641832
0.098013589424690198
0.097901077079711768
0.039848060634420028
0.039861963336888608
0.0011729309937617779
0.00058501942183676462
0.00072727853221945518
0.00030782129059729873
0.00017556778033402432
0.10016678540886187
0.097911823780605464
0.10032375810947806
0.10020530037341406
0.098105914513381853
0.098122768279234954
0.098098094388320137
0.039877172442223996
0.039884570385038322
0.0010643011423412565
0.0012172546114294065
0.00056073328834870451
0.00028515197080725645
0.00017628451797263513
0.039868193997428823
0.039854208115573546
0.0011482607713206761
0.00140229810434228
0.00066764630878628748
0.00040339114278439652
0.00021562949901665786
0.097697089132551526
0.039850449864745979
0.097231772195308791
0.098969393869616798
0.039879067449075614
0.039844597054045944
0.039806472724445971
0.0012250086581800524
0.0012522628566571795
0.00063371313326523093
0.00077395803131856942
0.0003535510630026784
0.00021689899751986958
0.0012441361866943081
0.0013578527010632406
0.0007299320876091455
0.00041373952373391251
0.00024393923324115218
0.039806825493570251
0.0011566350303907713
0.039311908479517002
0.091219084608260906
0.039300333870219965
0.0012138780396949637
0.0011977604280101076
0.001196205808849396
0.00072041015624901773
0.0008358462136352588
0.00044627799486096626
0.00024458542080233191
0.00072928662593184292
0.0007152504521199533
0.00041264077720739819
0.0002532856900898401
0.00095553463599908311
0.00090454947553178229
0.015511126878682106
0.00086342841649457598
0.00068418545961440537
0.00070807737532822747
0.00045568148700547451
0.00025464888687800149
0.00053603914727095821
0.00039558372984352331
0.00024345253238137787
0.00053785692998551977
0.00061186685884100989
0.00066267889152579003
0.00050687083134046259
0.00051177827715819088
0.00039352008082737882
0.00024439586524919972
0.0003170545903729416
0.00021571597105895688
0.00035585743458478776
0.00039767469636939773
0.00032400913277043819
0.00021592847914025855
0.00021317168286589603
0.00017586620907503691
0.00023485738485332712
0.00017572473559358893
0.00015518049654043072
0.00013390095682954347
0.00013379456762055997
9.8355661282938499e-05
0.00010007176393916485
0.08299476747540066
0.00059826212691129962
0.00013673366419952491
0.090446055624666941
0.088824749326675514
0.00015847638843572993
0.00041948642987066305
0.014124974467428388
0.00056765893909030971
0.035712895135401469
0.00013668758736725797
0.035715692648559109
0.036197421223195247
0.00025456661377714561
0.00039772342342605892
0.00084234001207298044
0.0005048369723528465
0.0001795360834822194
0.089672586032900639
0.091829208191084033
0.091890042788477205
0.089370694252832811
0.036199179290563412
0.036247864935795772
0.00020928428992817122
0.00033339893138584811
0.00085542628558450142
0.00048411723000688707
0.0010847093452308254
0.00017985159023813099
0.08975618941741681
0.036246619101586733
0.036270221520733704
0.0010295427181433597
0.0012810957960880094
0.00032420965879924541
0.00053334870214654642
0.00022047695775154796
0.091726055886019675
0.091719014047807051
0.091786473624280593
0.089498342983970983
0.036272022126863417
0.00121107269509418
0.0013720372789175986
0.000323765645665859
0.00056735288628062595
0.00073201785191333551
0.00022076246141132091
0.091734735153813793
0.089814220225348435
0.036276414482128351
0.0012653555568549061
0.0014462784694866267
0.00068187098453603896
0.00035870367411116797
0.00024807279400412011
0.0012911080504901832
0.091629181313906335
0.091535686922722681
0.091484259550111038
0.091694248154555097
0.089553826978360021
0.036274559868247347
0.0012122493322476076
0.00073737376776578762
0.0004104769042384569
0.0012754044838102908
0.00024968722824341403
0.091620834047210997
0.091703118316622742
0.089782191439442077
0.03626364248987779
0.00076862444302247502
0.00041167200703351523
0.00080433528027333274
0.00025826474113439275
0.0011365334802913643
0.09149116108509836
0.091538821667690368
0.091619861419241597
0.091711253406214166
0.089619230635626143
0.036274506387482086
0.00070383589015854181
0.00039644878525079157
0.0012385397946825976
0.0007848672460170679
0.00025962756048751796
0.091533408611423867
0.091603728780266735
0.091743398227138395
0.089693277420448914
0.036253453615809617
0.00044224296607432403
0.00063784542162691378
0.00024824852379672828
0.0012600750329472669
0.00070635960988620018
0.091501046034373715
0.091473901881604883
0.091438606856250465
0.091521790925751897
0.091434975850314709
0.091601919675624116
0.091726358274778014
0.089629399953578617
0.036247787476130125
0.0012138326722601596
0.00044775121028338232
0.00067184029267776879
0.00024920624045540301
0.091534126650045788
0.091416680712370232
0.091638514976463734
0.091743906176447065
0.089296237295753284
0.036197441097710739
0.00039295694096334118
0.00021900986091349906
0.00099660268409612726
0.00054437907403580797
0.091424479731018485
0.091486982026642405
0.091481961586476146
0.091512857949444804
0.091489059247005663
0.091453458946683289
0.091556222047402089
0.09167368857520472
0.091554406989344098
0.089657775418863647
0.091839748117672995
0.00071111356402260952
0.036199722316029311
0.0012216567686290801
0.00039220101367633085
0.0005293917928126913
0.00021921715660970953
0.091526952579400508
0.091520818862153519
0.091716091722895118
0.088843416832895095
0.091874741756883635
0.035704556567886014
0.083167367975313933
0.00096537247667773704
0.00017754151285951552
0.00032193367894949769
0.00056489475610462816
0.00013485144920213638
0.091472712899097836
0.091506796035339288
0.091552231019777497
0.091530040629314496
0.091506719295883263
0.091687597422549422
0.091620116799776372
0.090572725862536563
0.091905140928026818
0.00093299611948408957
0.035707421682903778
0.083113331725661446
0.00054888826271306775
0.00071205094169514177
0.00033447956898481428
0.00017823506181024584
0.00013497521460589714
0.091659309432159372
0.091609072125015747
0.091859034559290551
0.091779121726927398
0.090645319866364982
0.014091003471563553
0.035696140248677267
0.00064161923819671426
0.00021565510488433836
0.000361957346610453
0.00015548221727464841
9.872434202579313e-05
0.091546669516194723
0.091532953123363639
0.091593701853685885
0.091613946069885571
0.091591513722168436
0.091571623963032742
0.091774139001842003
0.091736652476529068
0.088576205776571743
0.089586004133454744
0.014095681616628206
0.035700649059047795
0.00072114082658997377
0.00044748427471539393
0.00023446811234958977
0.00015549372351215078
9.8931296349546972e-05
0.091738405392499653
0.09170549195212177
0.089853568665056241
0.08979496210227797
0.036185430141732353
0.0010248520780521981
0.00072564900454904634
0.0011057292962780808
0.0004454255339843718
0.00022798914315039334
0.00013524744247386461
0.091660505810714915
0.091715578139907383
0.091723360950611579
0.091698981999471935
0.091705772844487818
0.091778751642650591
0.089834000516176293
0.08985265955644825
0.036193600343895675
0.036243324239277917
0.00094755475163942732
0.001204876127492583
0.00055938325589007421
0.00034778391949351318
0.00021024538863008877
0.00013497344274010162
0.0898086698119447
0.089710937812950892
0.036228424664976611
0.036253192152506872
0.001211934915851396
0.00059958507629689992
0.00074901889476905958
0.00031170573045294792
0.00017655105709169045
0.091785997821137499
0.089645198651667007
0.091830971857312427
0.091847434150790316
0.089820360210385003
0.0898703646538868
0.089863020769775967
0.03626299790386317
0.036267601935023583
0.0011217670365413115
0.0012579335171594747
0.00057349933955740335
0.00028837017614172781
0.00017757578916806715
0.036250545129468077
0.036249928576843435
0.0011949736819990837
0.0014553930349288505
0.00068536155126525306
0.00040893042736733206
0.00021729003480070632
0.089502690656241612
0.036237601946247609
0.089038702437636938
0.090662192807738559
0.036262432086599565
0.036232575182274254
0.036418826080726094
0.0012774391104756304
0.0012992089102078358
0.00064932607681324834
0.00079445052183770818
0.00035788837256662425
0.00021826716416982169
0.0012907956479903092
0.0014113445748873106
0.0007490042213167303
0.00041804248695591286
0.00024534577999720653
0.036182900793224858
0.0012048182208397988
0.035698709421018028
0.083447685392053689
0.035696496974860187