# vtk DataFile Version 2.0
HASEonGPU gain medium input
ASCII
DATASET UNSTRUCTURED_GRID
POINTS 4210 double
3 0 0
1.8369701987210297e-16 3 0
-3 3.6739403974420594e-16 0
-5.5109105961630896e-16 -3 0
3 -7.3478807948841188e-16 0
1.5 0 0
1.4881720519717168 0.18799985034645639 0
1.4528747416929466 0.37303483074728216 0
1.3946647288323772 0.55218682902701688 0
1.3144600200657954 0.72263051115257304 0
1.2135254915624212 0.88167787843870971 0
1.0934529411321172 1.0268206588930329 0
0.9561359846230344 1.155769864163684 0
0.80374019246849482 1.2664918882530225 0
0.63866893734760899 1.3572405786990294 0
0.46352549156242118 1.4265847744427302 0
0.28107197187858712 1.4734308760930328 0
0.09418577929397029 1.4970400926424072 0
-0.094185779293970096 1.4970400926424072 0
-0.28107197187858723 1.4734308760930328 0
-0.46352549156242101 1.4265847744427305 0
-0.6386689373476091 1.3572405786990291 0
-0.80374019246849526 1.2664918882530225 0
-0.95613598462303462 1.155769864163684 0
-1.093452941132117 1.0268206588930333 0
-1.213525491562421 0.88167787843870982 0
-1.3144600200657952 0.72263051115257337 0
-1.394664728832377 0.55218682902701721 0
-1.4528747416929466 0.37303483074728222 0
-1.4881720519717168 0.1879998503464568 0
-1.5 1.8369701987210297e-16 0
-1.4881720519717168 -0.18799985034645644 0
-1.4528747416929466 -0.3730348307472825 0
-1.3946647288323768 -0.55218682902701743 0
-1.3144600200657957 -0.72263051115257249 0
-1.2135254915624212 -0.88167787843870959 0
-1.0934529411321172 -1.0268206588930331 0
-0.95613598462303429 -1.155769864163684 0
-0.80374019246849449 -1.2664918882530229 0
-0.63866893734760821 -1.3572405786990296 0
-0.46352549156242134 -1.4265847744427302 0
-0.28107197187858696 -1.473430876093033 0
-0.094185779293969818 -1.4970400926424072 0
0.094185779293969249 -1.4970400926424072 0
0.2810719718785864 -1.473430876093033 0
0.46352549156242084 -1.4265847744427305 0
0.63866893734760777 -1.3572405786990298 0
0.80374019246849393 -1.2664918882530234 0
0.95613598462303395 -1.1557698641636844 0
1.0934529411321168 -1.0268206588930333 0
1.213525491562421 -0.88167787843871004 0
1.3144600200657954 -0.72263051115257304 0
1.3946647288323768 -0.55218682902701799 0
1.4528747416929464 -0.37303483074728305 0
1.4881720519717168 -0.18799985034645697 0
1.5 -3.6739403974420594e-16 0
-2.9092010630146201 0.73249515884859218 0
-2.5948422592105751 -1.5055874762582662 0
-2.638638710324535 1.4274402933464378 0
-2.8978884492196491 -0.77604290239438267 0
-2.4227068937481744 -0.29854480912972997 0
-2.2388459313433096 0.80558197238431417 0
-2.1185483491509167 -2.1240887177939527 0
-2.2762777337060913 -0.88614019046409476 0
-1.8284026793996355 -0.30461628664767487 0
-2.3539448847492319 0.28920205505325541 0
-1.925117162062326 0.23371179250294496 0
-1.786888953758706 0.82090200043143891 0
-2.029363796594148 -0.52189541073442902 0
-1.629488009228552 -0.35615711274498935 0
-2.0803231070301726 -0.083492539902757262 0
-1.6755721404685429 0.20772020998593044 0
-1.9165499560764339 0.52102211743306048 0
-2.0300899814367166 1.266754822127965 0
-2.1964213531716528 2.0434610958106756 0
-1.8561330767803648 -0.91743606522273857 0
-1.589270957140853 -0.86153152545695189 0
-1.7343328997797542 -0.60722692470395634 0
-1.5664914951235849 -0.5228335341948539 0
-1.6477868617856892 -0.15715135467004851 0
-1.6437460384134761 0.051158601521915585 0
-1.8041893772262778 -0.023743408280853934 0
-1.6547987547448935 0.37371238924561423 0
-1.6180315114053807 0.5510125353778732 0
-1.5268798570482995 0.69238319934821035 0
-1.6388239287711379 1.0850038388965961 0
-1.6875760156370767 1.5197012524492868 0
-1.5593336036955092 2.5629043564563472 0
-1.4996988441497003 -2.5982500727471542 0
-1.9802297060357401 -1.3698089453659321 0
-1.5762166081711686 -1.1573249426138803 0
-1.4007627594884051 -0.9085974167883949 0
-1.4989064337745857 -0.70379764388621613 0
-1.2625610835544718 -0.40520734113723156 0
-1.325228904412973 -0.23859163392566166 0
-1.2943948053394074 -0.073335637986973831 0
-1.3427827258590763 0.089656682569852653 0
-1.2741279578802678 0.24872482112065408 0
-1.2821538783158424 0.40953240146002873 0
-1.2027516339180548 0.57198522631513882 0
-1.4812954882130449 0.84895039853631105 0
-1.3733470370259659 0.98381510339478051 0
-1.4063508735593937 1.2529923318366569 0
-1.5224835441189251 1.9183802856671823 0
-1.3734112884475305 -1.963044106645158 0
-1.6217056230882707 -1.606012273936521 0
-1.3394498385626938 -1.328073048933422 0
-1.163148119633501 -1.1842337395038438 0
-1.3070589534128838 -1.0649283111320864 0
-1.1113388727093745 -0.71495559522356988 0
-1.1950442737690117 -0.56412598609081921 0
-1.0750534249115704 -0.39661900603232197 0
-1.153617374305147 -0.2288795158674283 0
-1.0803890641793377 -0.068198157584990579 0
-1.1609975453446943 0.086397503654689151 0
-1.0640688638417983 0.24408334498195666 0
-1.1116968993602518 0.40207362957839665 0
-1.0126556824674025 0.57215597613873848 0
-1.1166879670667695 0.72548496557727571 0
-1.0215992045429356 0.87877978378487465 0
-1.2449316405281541 1.0936968153748481 0
-1.2528829909072468 1.4890660584210109 0
-1.0178460593377705 2.2349390410799095 0
-1.1799297904464485 -1.5674061482718298 0
-1.053995649329464 -1.3194350766749008 0
-0.90549945501362272 -0.99679158350665542 0
-1.0121778523560141 -0.85565639728473197 0
-0.90058892009910052 -0.70847393739939535 0
-0.99455595253628404 -0.55670121090994473 0
-0.88085370431514531 -0.3937277336806414 0
-0.96679865129551756 -0.22917106497450077 0
-0.87473932892886563 -0.067133388022849017 0
-0.96287522754762223 0.089737035928369666 0
-0.86096791778617987 0.25359720820182052 0
-0.9291275978649064 0.41075915724199275 0
-0.82710198310864169 0.5901914883258691 0
-0.91926261194328718 0.74398581909229744 0
-0.87753040470528454 0.9586157336022012 0
-1.1390787781582592 1.2385909081969002 0
-0.99471085676146187 1.3503173090428844 0
-1.1194912599855567 1.7930890994062907 0
-0.80032557569043294 2.8912763624767202 0
-0.76650813498443493 -2.9004250157097853 0
-0.92596498484480139 -2.2420169147785218 0
-0.93065761143326786 -1.7641322268359176 0
-0.76167743586714198 -1.5103902682172938 0
-0.91978973580081902 -1.4439707153547374 0
-0.7471457695070477 -1.0596134169643181 0
-0.79988562703292954 -0.86114847093426927 0
-0.69545438153746431 -0.71156615669761192 0
-0.79144204845223087 -0.55273830651967704 0
-0.68372981412882372 -0.39127236548686906 0
-0.77389003567853221 -0.22851799349297833 0
-0.6758485354502406 -0.062509188282699774 0
-0.76578475197800677 0.097233351211423291 0
-0.66591199087864228 0.26899409487517151 0
-0.74487864822602201 0.4295023019591197 0
-0.6541142583383317 0.62066143154172349 0
-0.75580089750440516 0.79138852320325104 0
-0.67091592346472706 0.95464566450371424 0
-0.77487765708040479 1.0995834017989343 0
-0.79869857593483573 1.4387056306916721 0
-0.93665607595392431 1.5546038975791305 0
-0.77864996168239464 1.8161318328826686 0
-0.61353808585111624 -1.9912892840373866 0
-0.62323154969557781 -1.7089059084720191 0
-0.57476832037177294 -1.5368146313824718 0
-0.63793544677181879 -1.1830000433905992 0
-0.52751653788231179 -1.0426931925797678 0
-0.62017295488032353 -0.89424936878366901 0
-0.50669515487228767 -0.72846919149549239 0
-0.59154985920645597 -0.55404564522811806 0
-0.48878995257535085 -0.38914272132141131 0
-0.58006441956412302 -0.22480175810960359 0
-0.48164302349733218 -0.055593658233160488 0
-0.57293926956204289 0.10779851958094987 0
-0.47652327682058099 0.28339409608037769 0
-0.56402551364572673 0.45082301866678548 0
-0.46762066634198834 0.6261494430069231 0
-0.56497407774447306 0.7934328578233576 0
-0.48961916673243916 0.97691456553315903 0
-0.60618811689263163 1.1497232480528154 0
-0.4742094490475352 1.2590003451647966 0
-0.66463891755205384 1.5629920717612207 0
-0.36131365857486558 -2.3511329639786838 0
-0.34793084410212505 -1.8626017024234176 0
-0.39289751616072954 -1.6245634669036431 0
-0.31463216144960332 -1.2915179593386732 0
-0.46642659870548159 -1.2272171454012473 0
-0.33491084033783763 -1.0670527789485813 0
-0.41631791924388989 -0.89039663954563619 0
-0.31181964526899975 -0.7222331744974414 0
-0.40114756376878036 -0.55847270264344362 0
-0.29780899185629278 -0.38891562830600757 0
-0.38777029034256993 -0.22078898707456487 0
-0.29014568668542778 -0.050365931330651592 0
-0.3829147870845242 0.11678225684600209 0
-0.28603439902696814 0.28874089935748026 0
-0.37652314225038691 0.45723474206909159 0
-0.28285935985123906 0.634056233724409 0
-0.3812739593352989 0.80596000288030079 0
-0.28432579640457945 0.96717187850060327 0
-0.38401137154317538 1.1193412798190607 0
-0.28929041088106155 1.2996653185743416 0
-0.48649810464939913 1.5786338372237843 0
-0.50956987991026059 1.802700551049921 0
-0.10156301702722029 -1.9776698354740183 0
-0.18850645867119584 -1.6711101166352897 0
-0.12491842961146801 -1.333492551777415 0
-0.19531088201376173 -1.165235070178507 0
-0.11396487659381563 -1.0169604998755526 0
-0.22711736892693501 -0.88992552182652396 0
-0.11845331805017587 -0.72069302201854535 0
-0.20739099047019754 -0.55455554346669034 0
-0.10550087553679044 -0.38644865819451252 0
-0.19736124887727366 -0.21878420354912947 0
-0.099429935623401258 -0.048143548431330535 0
-0.19246831389354235 0.12043663192685652 0
-0.096305895709434486 0.29164933055122599 0
-0.18946837129989327 0.46219349980575375 0
-0.093646175437730308 0.632792208494797 0
-0.18750683698080658 0.80307016294956868 0
-0.093180419620707694 0.97837378048707846 0
-0.18910737309012304 1.1435649848320233 0
-0.099982572689058719 1.3266515631625531 0
-0.32585079229692676 1.6531691556466916 0
-0.25725985857269978 1.9385028597941227 0
-0.58126105676834439 2.18968912022916 0
0.72890636030000433 -2.9101023143834968 0
0.13870214135764744 -2.3883760262207527 0
0.0063019320178563437 -1.6943844456388202 0
0.066747659465658471 -1.3392247008584173 0
-0.0043774832355384184 -1.1757340807926229 0
0.091920900400353861 -1.0209382459652763 0
-0.01412700401732131 -0.86652712359602013 0
0.086764461817082472 -0.71218318669596081 0
[...]
POINT_DATA 4210
SCALARS betaCells double 1
LOOKUP_TABLE default
7.1222066940454621e-05
7.0948017783965936e-05
7.1593435745780838e-05
7.087396028604782e-05
0
0.063054171625144817
0.06305587196416168
0.063057716699422173
0.063057291526503287
0.063058043491744847
0.06305763210084489
0.063058464327218941
0.063059484236609786
0.063058834423247515
0.063057964901117092
0.063058633809748993
0.063059649401960807
0.063059033359901942
0.063058066295042708
0.063058708843601971
0.063059600071354985
0.063061798548882109
0.063059176009290438
0.063058656416489597
0.06305827383224813
0.06305817694758907
0.063057913365598905
0.06305976820348444
0.06305919489552711
0.063058334742323807
0.063058937814274102
0.063059040013963424
0.063057499616510929
0.063064760564814318
0.063059454733968651
0.063057766221492603
0.06305839445476541
0.063057834637386484
0.063057499894097646
0.063058309075473856
0.063058698142955602
0.063059046947103681
0.06305850132874731
0.063062765789428238
0.063058588112455516
0.063056789350053266
0.063057558085067772
0.063060187983978361
0.063057974989899554
0.063058481977436576
0.063057885453242049
0.063058862313064554
0.063057946631341871
0.063060896429661964
0.063057557878784781
0.063060294106447395
7.1723295681669474e-05
7.1905751466733956e-05
7.0585581560435228e-05
7.2151694678307832e-05
0.00012595491224210207
0.00013458004386980609
7.1190855217482309e-05
0.00012580672317708154
0.00028972304058678966
0.00013690184509061523
0.00025255579181377054
0.00024249469714334739
0.00019536659501657579
0.0004392190761736527
0.00020030172679522519
0.00042138980456678368
0.00023520093630785649
0.00013415046698112533
7.0905338166507925e-05
0.00020407832095549065
0.00031850407317597401
0.00029957594005476087
0.000456378126459124
0.00047535398444513351
0.00046491358383416809
0.00031923333211992741
0.00042778016022885991
0.00041102084526192475
0.00044155956661188285
0.00024238139648175206
0.00015540630722075857
7.161023603083229e-05
7.1011793571610485e-05
0.00013032894149072116
0.0002451951158308657
0.00044177392286128946
0.00045953793189410343
0.15788828540065494
0.15704428246014193
0.15833863793389963
0.15707438810994701
0.15833933889700177
0.15707239591363373
0.15767480745422138
0.00040701839000323341
0.00042415428626389013
0.00027732591063891825
0.00012450012227031504
0.0001320700235001199
0.00015231392661411433
0.00027680606876802127
0.00045409974593762072
0.00042783143603522154
0.15797785070949666
0.15801378466402408
0.15863669573157313
0.15857132763174597
0.15857279775066416
0.15862584893834167
0.15855418979708188
0.15860818452136213
0.15863638461199916
0.15766561555691855
0.15699788879592844
0.00046426624131759662
0.0002499189333361407
0.00012353754880964915
0.00024309325995014696
0.00042930343780632539
0.15696310713320255
0.15790753389464651
0.15852683619666327
0.15864481332777505
0.15849971884747927
0.15848841999277136
0.15834488046081316
0.15846554565112
0.15836929684088927
0.15850453182297619
0.158525370706775
0.15864391748165635
0.15839194060728198
0.00042782162809348043
0.00044014230424449302
0.00019252223885599405
7.0715041022709511e-05
7.179565439899128e-05
0.00012814927666738007
0.00023063639379734233
0.00042471467127419901
0.00040518050750435792
0.15844677814148989
0.15860917989713766
0.15847201980278952
0.15842497427837446
0.15836226563789635
0.15839500369827808
0.15833837290771158
0.15838338514728981
0.1583463748738185
0.15840817192455053
0.15835808075220376
0.1585923535386202
0.1586600936021253
0.15712553301899723
0.00046759924449731841
0.0003155873166629729
0.00023603361655062712
0.00020158291390475847
0.00031232788825476791
0.00047004762975950227
0.15717682643839956
0.15860966219071287
0.15856788318343332
0.15837529580729631
0.1583747851535148
0.15830460149900816
0.15829136046684356
0.15825803617601042
0.15829553363760393
0.15829592590505284
0.15828955719435212
0.15840088322150619
0.15852005935024524
0.1585863137995025
0.15837349838826484
0.15714864058764769
0.00041179480300880257
0.00013605378148567784
0.00026987659105254849
0.00043577674827603957
0.15770566464597158
0.15819047740860659
0.15861605235603762
0.15848372247222875
0.15830072909017068
0.15835817066633612
0.15828988370923486
0.1582849560239187
0.158243380533651
0.15813084415820527
0.15823505661042336
0.15834112779293588
0.15833890865090122
0.15842332389617803
0.15852801634490657
0.15867261846490319
0.15766271870621035
0.00046373274234338854
0.00028104288994366196
0.00023501972655276917
0.00044780596455889403
0.15735057535211991
0.15866795796160166
0.15853062622757205
0.15838599096902314
0.15832999055789609
0.15828811107200286
0.15829142438380586
0.15826002098911154
0.15822930921980896
0.15825841597930565
0.15826480926703165
0.15827987368203816
0.15831932152649064
0.15838957834865069
0.15848489927443715
0.15864791525184227
0.15773911374178198
0.00042293868104431787
0.00024459927705301364
0.00015516587773264069
7.1487145079858976e-05
0.00013394561367860476
0.00041924957494040015
0.15733570915395306
0.15865493433044345
0.15852414636472986
0.15840691751189706
0.1582935727171941
0.1582977627740588
0.15820192856732215
0.15823854172278068
0.15823412352711211
0.15820463641559454
0.15825624093728319
0.15826239628717712
0.15830273405176556
0.15837916360909537
0.15845486975032164
0.15865315304318628
0.15774340836921241
0.00042859363353332059
0.00031133851478653185
0.00012428739514567036
0.00024883517609126211
0.00043820441254197528
0.15654569571458404
0.15864230573875801
0.15856952011356854
0.15841683272255871
0.15834675112531754
0.15829277355246474
0.15830361001587459
0.1582553445413768
0.15827263287956533
0.15821860607725602
0.15826643743272389
0.15827265562042739
0.15833738029290645
0.15839389547293595
0.15846106024722828
0.15866614377431676
0.15768280010837582
0.00046547787165889291
0.00042922497040869944
0.0001306397444557722
0.00012672723918021422
0.00028958605393678352
0.00045512816216145783
0.15845482585168763
0.15864492435224156
0.15849061703457304
0.15839247744986959
0.15830782747933411
0.15833954792234461
0.15822236350266211
0.15824891490011614
0.15827697789569167
0.15831049618027987
0.15829793731249489
0.15837502117870159
0.15840808294217754
0.15856983293459756
0.15865829305108095
0.15713105081329895
0.00044573211749035697
0.00032543996380580428
0.00025771307066236628
0.00019293049245825745
0.00015457691952046595
0.0002422728140615925
0.00044372900721627073
0.00035824979847881897
0.15762136831505238
0.15865307544011009
0.15848898400054687
0.15849315015214419
0.15838236548511367
0.15837534374898898
0.15831660319341362
0.15833251663788225
0.15831928349075719
0.15836628708244685
0.15835433987184802
0.15842734670232506
0.15848441725530146
0.15865355683708671
0.15830807395313579
0.00043780446148485594
0.0004514792323299171
0.00019903306128642151
0.00020102381457153757
0.00043991577453737291
0.15693615262349331
0.15765777306856668
0.15864203890102269
0.15858993815762776
0.15846533367143567
0.15849119460468797
0.15841182135547799
0.15844938861655422
0.15837076443051684
0.15844074374402825
0.15842293568390076
0.15852594054791352
0.15858243021429705
0.15839271552772571
0.15713715259224548
0.00044808297627255128
0.00028777229876453855
0.00012361495759396574
0.00026166538011504232
0.00044633373685167493
0.00045120145604373216
0.15795622299060993
0.15803282507061533
0.15860663004841491
0.1586465237127456
0.15850140976407862
0.15857924861099584
0.15851633948202132
0.15857694561743593
0.15850073582265092
0.15860440559143879
0.1586820341975691
0.15702379912502773
0.00045626550920569695
0.00028907455889156644
0.00018890270616149372
7.1848276860915399e-05
7.1304352346988372e-05
0.00012908622521058788
0.00031614624313393627
0.00027780589404181281
0.00043728401239388341
0.00046665205824677548
0.15801489270697014
0.15792185869427808
0.15866887079560141
0.15843811941850033
0.15866309706347925
0.15844063531501773
0.15862706113482034
0.15766966719785155
0.15764659495609978
0.00041338712041444299
0.00042899966666939114
0.0003072144858864032
7.0817362753614402e-05
0.00019007185080981839
0.00018383751078405173
0.00030233253988210321
0.0003967202879743613
0.00045594975345016552
0.00044554779949921712
0.15710302875117915
0.00043224246432574376
0.15715507002512585
0.00045844969275198191
0.15710992664324971
0.00044583795901355692
0.00046913382669738833
0.00024273858964072543
0.00019321611508158341
0.00012420800536019495
0.00023054053175079601
0.00030685700510326694
0.00029773088743703809
0.00045399775741986867
0.0002918150630473254
0.00046092291520804434
0.0004366122599670717
0.00028162834130315395
0.0003108752832039083
7.0388175610978766e-05
0.00012017820627927427
0.00019254661417036952
0.00038478325428410037
0.00029408292553610547
0.00012198354821574626
0.00019118626740260644
0.00012612128023747405
0.00020718267584410901
0.00021694243872361977
0.00018911956593615153
7.0708653917636119e-05
0.00012959476941977043
0.00013458812881829294
0.00012392987677762115
7.0510155733354151e-05
0.00012042813591037739
7.0719931094834397e-05
7.0864997106509723e-05
7.0766009203352564e-05
7.1182536334695132e-05
7.1911228675950988e-05
7.1581817619098773e-05
7.1850119657888874e-05
0
0.055071224402148386
0.055179055475189399
0.055177929850924456
0.055177512366783442
0.055176372207061043
0.055183096582683104
0.055177434764804717
0.05518022639101542
0.055181414399923946
0.055181171328517714
0.055180917793240691
0.055180555640758397
0.055181186702672934
0.055181151887337535
0.05517836807967906
0.055180415429781915
0.055185670067687841
0.055183402652769539
0.0551795836895487
0.055183148224422759
0.055182799062589688
0.055183164454199303
0.055182114849876396
0.055181224250792381
0.05518076756071065
0.05518186266967149
0.055180354727008177
0.055181133682982775
0.0551816396159822
0.055192913913867901
0.055181496690948628
0.055183617940798887
0.055181210017070027
0.055178679644971897
0.055180039685813614
0.055191935454577339
0.055183434683731721
0.055180639497448385
0.05517855238018067
0.055178767514474911
0.055182257237093246
0.055177825417684317
0.055177643602870891
0.055181118083601259
0.055188814394039658
0.055176923818452413
0.055177628964398574
0.05517822797210134
0.055178873959504951
0.055177154664979598
0.055177395976458529
7.2101273547299863e-05
7.1551389229379691e-05
7.2420479831350476e-05
7.1034823490151664e-05
0.00012696808472212242
0.00013737797932683918
7.2295949056578996e-05
0.00012684400693861898
0.00030166150414242442
0.00013875081912008774
0.00025929127973657319
0.00025021552534588461
0.00019967408595261758
0.00047767640395113194
0.0002042379506885464
0.00045453944263580941
0.00024182905264107503
0.00013535527038475447
7.1888309673669059e-05
0.00020818168646876458
0.00033348580124082966
0.00031189939330914499
0.00049743954811745975
0.00049668201304164385
0.0005061555303639176
0.00033486953213724606
0.00045561556386166996
0.00045365477264565455
0.00048334946524002136
0.00025145212456163335
0.00015844767409453698
7.2167978802695784e-05
7.2204363241117525e-05
0.00013314796538993424
0.00025217858131682393
0.00047971252955107159
0.00049622999560517539
0.14057396697364397
0.13983898171721401
0.14109460821393399
0.13985773431192808
0.14105131605615545
0.13982085561358487
0.14041599074796876
0.00044245665138413726
0.00046742641109840397
0.0002891631460901435
0.00012646966828620015
0.00013318646179300464
0.00015495901816520811
0.00028591511438145882
0.00049469231530849494
0.00046513997559839682
0.14065487544075483
0.14068701781498988
0.14124447898978079
0.14126717442267828
0.14119358457112666
0.14116716930058795
0.14115846706120269
0.14128580501234456
0.14124254346449153
0.14035749842188142
0.13976611816497764
0.00050040003353961284
0.00025585920467586219
0.00012515137248951243
0.00025096108755750358
0.00046258267094270478
0.13980377220326495
0.14055173285918224
0.14118568662358402
0.14123109794796565
0.14111404847704029
0.14112675978256181
0.14106410271313519
0.14111044476535867
0.14101535645634294
0.1410874688033526
0.14110230295414911
0.14124324668395605
0.14101368201536987
0.00046864826186696263
0.00047651457741893942
0.00019582341539900374
7.1348217667381944e-05
7.1614612311533571e-05
0.0001293563576428902
0.00023547352572036987
0.0004539910185029869
0.00043323842470376154
0.14106884897631441
0.141276444406783
0.14113056993249223
0.14101950326114177
0.14103118315996485
0.1410108696851623
0.1409355138743292
0.14101852318193014
0.14101839857593096
0.14101988955419228
0.14103537408775171
0.14117544140356059
0.14121814252286677
0.13990961840795804
0.00051389579124615844
0.00032751248982889448
0.00024463856199295438
0.00020393244373389065
0.00032526161242639494
0.0005164865110891116
0.13986627512334096
0.1412477100950863
0.14121871472390637
0.14109484004735764
0.14100072658556642
0.14093004022664882
0.14098139929764447
0.14089954731207296
0.14098368622607788
0.14092982051719857
0.14093974672730794
0.1410303001200825
0.14106260750859184
0.1411939616896607
0.14101052367159159
0.13987686771580185
0.00045760096336667101
0.00013768426992667824
0.00028101207114083836
0.00047866838103439443
0.14050112184121485
0.14087073938221401
0.14123738901112526
0.1411085030388203
0.1410344221013354
0.14099381825191076
0.14089679330630503
0.14088157920837951
0.14087973903896858
0.14089523386188635
0.14087434091334586
0.14092850733920673
0.14093995124029826
0.14102888644752767
0.14108524970481398
0.14123512244482087
0.14038463194932294
0.00050540054416114684
0.00029145504076267522
0.00024151939960076051
0.00047076244889982281
0.14009985452776488
0.14124799339162947
0.14107661484967873
0.1410453804806385
0.14098907364166421
0.14097946311729495
0.14089318048229707
0.14088545278653966
0.14090719546722033
0.14086640818812907
0.14089500143479625
0.14091895729002357
0.14098235831352285
0.1410370976706361
0.1410985251562247
0.14119756004323916
0.14038868688745385
0.00045434701759801204
0.00024948008839508065
0.00015834416221381919
7.2489380717701495e-05
0.00013531233376055471
0.00045797631365658098
0.14006085949909386
0.14125296027749026
0.14118583533453619
0.14105937885200726
0.14099660598524566
0.14088519203555985
0.14092774902378249
0.14084862833254042
0.14088964997313891
0.14085502004265735
0.14089231616070064
0.14095118155695563
0.14098417967673324
0.14099855823834595
0.14105066268318656
0.14118629923750106
0.14048998415250474
0.00046062167406315922
0.00032314247093602499
0.00012615231772043534
0.00025679168076144659
0.00047421964658966615
0.13933403842362602
0.14132272520339123
0.14113618708303644
0.14105647382690489
0.14098951972335577
0.1409902889579252
0.14093248577032957
0.1409298834153048
0.14093452167475029
0.14091566648172188
0.14091995807023536
0.14096128549710199
0.14098442689927485
0.14098746937041642
0.14111580940855814
0.14125784149199419
0.14037615522235794
0.00051578712815845583
0.00046412791807204465
0.00013301224597154389
0.00012623462307234762
0.00030076373029426875
0.00049493717558346854
0.14109762978666646
0.14122366731206143
0.14109118951561694
0.1410581033353582
0.14099130815338623
0.1409207171363617
0.14089256270459999
0.14093786140523096
0.14094449331505068
0.14085673148603217
0.1409571732808414
0.14100880052639717
0.14103501642142707
0.14120233964017212
0.14128001869435783
0.13988289317202487
0.0004878099358560248
0.00033914963106541213
0.00026295064695851581
0.00019649002125865237
0.00015634352616380104
0.00024809151790644205
0.00047114344203060031
0.00038267065593281121
0.140366062539587
0.1412723393884536
0.14116426736206603
0.14113587701534777
0.1410312839677566
0.14106866616951372
0.1409904508433257
0.14095685000712585
0.14096827302975901
0.140985637298253
0.14099684854650665
0.14103515614954809
0.14112758531048172
0.14129309843100124
0.14104768560807981
0.00048043105962368226
0.0004986562045116499
0.00020314830736135338
0.00020550334300523026
0.00048493619673380605
0.13964516067802585
0.14046995673713364
0.14128429710952506
0.14112073466913655
0.14107740118417231
0.14108940398951517
0.14105951421285318
0.14107741748083752
0.14097914573473738
0.14105923878989876
0.14097231158283255
0.14115721095210604
0.14116397769720287
0.1410692886587844
0.13991126498815984
0.000490710815882205
0.00029879296790463896
0.0001251867179350557
0.00027087273584303052
0.00048344544195530812
0.00049923099751714216
0.14063424389371029
0.14071866650466039
0.14122077559984494
0.1412065026422181
0.14113400370456625
0.14120430064431819
0.14103094022884813
0.14117281125440856
0.14112087200596332
0.14124842785060929
0.141290222891476
0.13980097036045699
0.00049761880481366972
0.00030165250110478523
0.0001940822434770229
7.135559769104852e-05
7.1818447232035188e-05
0.00013187857828318467
0.00032926411269929305
0.00028610135754956865
0.00047725535542084054
0.00050941683307623501
0.14073378870256184
0.14061853924151002
0.14125132328311465
0.14108169338277907
0.14127223937485461
0.14107873779999541
0.14125817441069757
0.14043276718425748
0.14044839610313362
0.00045016249214146846
0.00046866311774832224
0.0003177399766484245
7.2023834518905122e-05
0.00019447341161163813
0.00018814607317286345
0.00031566678658068864
0.00042024047334005921
0.00049752010769305759
0.00048607470233915897
0.13985366038675198
0.00046285726836928833
0.1398730870937209
0.00050280145131007935
0.13985926401688697
0.00049325528434926923
0.00050348740987507556
0.0002501696037526656
0.00019789474568498406
0.00012374659071577536
0.00023692443975888172
0.00031924213406012196
0.00030838906218867858
0.00049110968113281561
0.00030361172917921849
0.00049845835026556407
0.00047432470591678112
0.00029387825522075211
0.00031966434243983224
7.1259096251368397e-05
0.00012160139734136785
0.0001973701017183125
0.0004026899017701481
0.00030548634536663443
0.00012294556716080894
0.00019568283086266833
0.00012803226473815144
0.00021215872883102418
0.00022398239076028834
0.00019510087044604489
7.1200059037818412e-05
0.00013093085664027875
0.00013450150374065347
0.00012518117961663567
7.162378278040411e-05
0.00012257732078620314
7.1031687113168031e-05
7.1081315538356978e-05
7.1203800859911593e-05
7.1226447777487004e-05
7.1074464975900465e-05
7.2314732452708619e-05
7.2048284864798063e-05
0
0.04834348579229731
0.048546690692001085
0.048542257647253416
0.048545488297577322
0.048541889232460202
0.048543942369621729
0.048549065021436189
0.048542514446778894
0.048546926175208567
0.048546463886241099
0.048543935948597468
0.048544217377167069
0.048543188045002114
0.048548874136972432
0.048548881090021867
0.04855047984884632
0.04855176091503241
0.048551375307491297
0.048547567009919662
0.048548880678748629
0.048548458314408315
0.048546292835140052
0.048549286834784336
0.048550327568693305
0.048547358889143147
0.048547349385485092
0.048551895364043141
0.048546523809186747
0.048549464878522311
0.048547795863704911
0.048548959734108686
0.048551148575197871
0.04854896846833915
0.048546504861384898
0.048549065355215276
0.048543619321989931
0.048546729677772328
0.048544705242392273
0.048549994739088748
0.048545402477653946
0.048548429487495298
0.048546645932138054
0.048544018040172443
0.048543833669276053
0.048545835946854674
0.048551426012237713
0.048542127359814148
0.048546229564096398
0.048542382161232515
0.048543716868808783
0.048544364763047271
7.195450685404079e-05
7.2379872024310284e-05
7.2709878324320106e-05
7.2330235954903179e-05
0.00012890129383230533
0.00013903705347526678
7.1751890631702609e-05
0.00012674764049538522
0.00030740840685617896
0.00013956894186564905
0.00026701155518323927
0.00025390606084519382
0.00020292924185206962
0.00049531300357685934
0.0002080192629428372
0.00046831394833798023
0.00024445783140723246
0.00013626615346411838
7.2206866854264971e-05
0.00021169296180827455
0.00034252642484347432
0.00031977333805478916
0.00052013593802355772
0.00051258942038528283
0.00052815666803590058
0.00034226144418899056
0.00048061899241411707
0.0004625683070366079
0.00050125743663202206
0.00025183965099085298
0.00016029839838047489
7.1455771385951452e-05
7.2020924733942976e-05
0.00013359291195697346
0.00025572380237375605
0.00049855131480523772
0.00052172291435965837
0.12572306491155832
0.12507137862556736
0.12622484026204223
0.12509970533190365
0.12620190795231565